<LesHouchesEvents version="3.0">
<header>
<!--
#*********************************************************************
#                                                                    *
#                        MadGraph5_aMC@NLO                           *
#                                                                    *
#                           Going Beyond                             *
#                                                                    *
#                   http://madgraph.hep.uiuc.edu                     *
#                   http://madgraph.phys.ucl.ac.be                   *
#                   http://amcatnlo.cern.ch                          *
#                                                                    *
#                     The MadGraph5_aMC@NLO team                     *
#                                                                    *
#....................................................................*
#                                                                    *
# This file contains all the information necessary to reproduce      *
# the events generated:                                              *
#                                                                    *
# 1. software version                                                *
# 2. proc_card          : code generation info including model       *
# 3. param_card         : model primary parameters in the LH format  *
# 4. run_card           : running parameters (collider and cuts)     *
# 5. pythia_card        : present only if pythia has been run        *
# 6. pgs_card           : present only if pgs has been run           *
# 7. delphes_cards      : present only if delphes has been run       *
#                                                                    *
#                                                                    *
#*********************************************************************
-->
<MGVersion>
#3.5.0_lo_vect
</MGVersion>
<MG5ProcCard>
<![CDATA[
#************************************************************
#*                     MadGraph5_aMC@NLO                    *
#*                                                          *
#*                *                       *                 *
#*                  *        * *        *                   *
#*                    * * * * 5 * * * *                     *
#*                  *        * *        *                   *
#*                *                       *                 *
#*                                                          *
#*                                                          *
#*         VERSION 3.5.0_lo_vect         2023-06-09         *
[1;31m#*                                                          *[1;0m
[1;31m#*          WARNING: UNKNOWN DEVELOPMENT VERSION.           *[1;0m
[1;31m#*            WARNING: DO NOT USE FOR PRODUCTION            *[1;0m
[1;31m#*                                                          *[1;0m
#*                                                          *
#*    The MadGraph5_aMC@NLO Development Team - Find us at   *
#*    https://server06.fynu.ucl.ac.be/projects/madgraph     *
#*                                                          *
#************************************************************
#*                                                          *
#*               Command File for MadGraph5_aMC@NLO         *
#*                                                          *
#*     run as ./bin/mg5_aMC  filename                       *
#*                                                          *
#************************************************************
set group_subprocesses Auto
set ignore_six_quark_processes False
set low_mem_multicore_nlo_generation False
set complex_mass_scheme False
set include_lepton_initiated_processes False
set gauge unitary
set loop_optimized_output True
set loop_color_flows False
set max_npoint_for_channel 0
set default_unset_couplings 99
set max_t_for_channel 99
set nlo_mixed_expansion True
set stdout_level DEBUG
set zerowidth_tchannel F
generate g g > t t~ g g
define p = g u c d s u~ c~ d~ s~
define j = g u c d s u~ c~ d~ s~
define l+ = e+ mu+
define l- = e- mu-
define vl = ve vm vt
define vl~ = ve~ vm~ vt~
output madevent CODEGEN_mad_gg_ttgg --hel_recycling=False --vector_siz\
e=16384 --me_exporter=standalone_cudacpp
]]>
</MG5ProcCard>
<MGProcCard>
#*********************************************************************
#                        MadGraph/MadEvent                           *
#                   http://madgraph.hep.uiuc.edu                     *
#                                                                    *
#                          proc_card.dat                             *
#*********************************************************************
#                                                                    *
#            This Files is generated by MADGRAPH 5                   *
#                                                                    *
# WARNING: This Files is generated for MADEVENT (compatibility issue)*
#          This files is NOT a valid MG4 proc_card.dat               *
#          Running this in MG4 will NEVER reproduce the result of MG5*
#                                                                    *
#*********************************************************************
#*********************************************************************
# Process(es) requested : mg2 input                                  *
#*********************************************************************
# Begin PROCESS # This is TAG. Do not modify this line
g g > t t~ g g           #Process
# Be carefull the coupling are here in MG5 convention
          
end_coup           # End the couplings input

done               # this tells MG there are no more procs
# End PROCESS  # This is TAG. Do not modify this line
#*********************************************************************
# Model information                                                  *
#*********************************************************************
# Begin MODEL  # This is TAG. Do not modify this line
sm
# End   MODEL  # This is TAG. Do not modify this line
#*********************************************************************
# Start multiparticle definitions                                    *
#*********************************************************************
# Begin MULTIPARTICLES # This is TAG. Do not modify this line

# End  MULTIPARTICLES # This is TAG. Do not modify this line
</MGProcCard>
<MGRunCard>
<![CDATA[
#*********************************************************************
#                       MadGraph5_aMC@NLO                            *
#                                                                    *
#                     run_card.dat MadEvent                          *
#                                                                    *
#  This file is used to set the parameters of the run.               *
#                                                                    *
#  Some notation/conventions:                                        *
#                                                                    *
#   Lines starting with a '# ' are info or comments                  *
#                                                                    *
#   mind the format:   value    = variable     ! comment             *
#                                                                    *
#   To display more options, you can type the command:               *
#      update to_full                                                *
#*********************************************************************
#                                                                    
#*********************************************************************
# Tag name for the run (one word)                                    *
#*********************************************************************
  tag_1     = run_tag ! name of the run 
#*********************************************************************
# Number of events and rnd seed                                      *
# Warning: Do not generate more than 1M events in a single run       *
#*********************************************************************
  1000 = nevents ! Number of unweighted events requested 
 21 = iseed   ! rnd seed (0=assigned automatically=default))
#*********************************************************************
# Collider type and energy                                           *
# lpp: 0=No PDF, 1=proton, -1=antiproton,                            *
#                2=elastic photon of proton/ion beam                 *
#             +/-3=PDF of electron/positron beam                     *
#             +/-4=PDF of muon/antimuon beam                         *
#*********************************************************************
     1        = lpp1    ! beam 1 type 
     1        = lpp2    ! beam 2 type
     6500.0     = ebeam1  ! beam 1 total energy in GeV
     6500.0     = ebeam2  ! beam 2 total energy in GeV
# To see polarised beam options: type "update beam_pol"

#*********************************************************************
# PDF CHOICE: this automatically fixes alpha_s and its evol.         *
# pdlabel: lhapdf=LHAPDF (installation needed) [1412.7420]           *
#          iww=Improved Weizsaecker-Williams Approx.[hep-ph/9310350] *
#          eva=Effective W/Z/A Approx.       [2111.02442]            *
#          edff=EDFF in gamma-UPC            [eq.(11) in 2207.03012] *
#          chff=ChFF in gamma-UPC            [eq.(13) in 2207.03012] *
#          none=No PDF, same as lhapdf with lppx=0                   *
#*********************************************************************
     nn23lo1    = pdlabel     ! PDF set 
     230000    = lhaid     ! if pdlabel=lhapdf, this is the lhapdf number
# To see heavy ion options: type "update ion_pdf"
#*********************************************************************
# Renormalization and factorization scales                           *
#*********************************************************************
 False = fixed_ren_scale  ! if .true. use fixed ren scale
     False = fixed_fac_scale  ! if .true. use fixed fac scale
 91.188  = scale            ! fixed ren scale
 91.188  = dsqrt_q2fact1    ! fixed fact scale for pdf1
 91.188  = dsqrt_q2fact2    ! fixed fact scale for pdf2
 -1 = dynamical_scale_choice ! Choose one of the preselected dynamical choices
 1.0  = scalefact        ! scale factor for event-by-event scales

 
#*********************************************************************
# Type and output format
#*********************************************************************
  False     = gridpack  !True = setting up the grid pack
  -1.0 = time_of_flight ! threshold (in mm) below which the invariant livetime is not written (-1 means not written)
  average =  event_norm       ! average/sum. Normalization of the weight in the LHEF
# To see MLM/CKKW  merging options: type "update MLM" or "update CKKW"

#*********************************************************************
#
#*********************************************************************
# Phase-Space Optimization strategy (basic options)
#*********************************************************************
   0  = nhel          ! using helicities importance sampling or not.
                             ! 0: sum over helicity, 1: importance sampling
   1  = sde_strategy  ! default integration strategy (hep-ph/2021.00773)
                             ! 1 is old strategy (using amp square)
			     ! 2 is new strategy (using only the denominator)
# To see advanced option for Phase-Space optimization: type "update psoptim"			     
#*********************************************************************
# Customization (custom cuts/scale/bias/...)                         *
# list of files containing fortran function that overwrite default   *
#*********************************************************************
  = custom_fcts ! List of files containing user hook function
#*******************************                                                 
# Parton level cuts definition *
#*******************************
  0.0  = dsqrt_shat ! minimal shat for full process
#                                                                    
#
#*********************************************************************
# BW cutoff (M+/-bwcutoff*Gamma) ! Define on/off-shell for "$" and decay  
#*********************************************************************
  15.0  = bwcutoff      ! (M+/-bwcutoff*Gamma)
#*********************************************************************
# Standard Cuts                                                      *
#*********************************************************************
# Minimum and maximum pt's (for max, -1 means no cut)                *
#*********************************************************************
 20.0  = ptj       ! minimum pt for the jets 
 -1.0  = ptjmax    ! maximum pt for the jets
 {} = pt_min_pdg ! pt cut for other particles (use pdg code). Applied on particle and anti-particle
 {}	= pt_max_pdg ! pt cut for other particles (syntax e.g. {6: 100, 25: 50}) 
#
# For display option for energy cut in the partonic center of mass frame type 'update ecut'
#
#*********************************************************************
# Maximum and minimum absolute rapidity (for max, -1 means no cut)   *
#*********************************************************************
 5.0 = etaj    ! max rap for the jets 
 {} = eta_min_pdg ! rap cut for other particles (use pdg code). Applied on particle and anti-particle
 {} = eta_max_pdg ! rap cut for other particles (syntax e.g. {6: 2.5, 23: 5})
#*********************************************************************
# Minimum and maximum DeltaR distance                                *
#*********************************************************************
 0.4 = drjj    ! min distance between jets 
 -1.0  = drjjmax ! max distance between jets
#*********************************************************************
# Minimum and maximum invariant mass for pairs                       *
#*********************************************************************
 0.0   = mmjj    ! min invariant mass of a jet pair 
 -1.0  = mmjjmax ! max invariant mass of a jet pair
 {} = mxx_min_pdg ! min invariant mass of a pair of particles X/X~ (e.g. {6:250})
 {'default': False} = mxx_only_part_antipart ! if True the invariant mass is applied only 
                       ! to pairs of particle/antiparticle and not to pairs of the same pdg codes.  
#*********************************************************************
# Inclusive cuts                                                     *
#*********************************************************************
 0.0  = ptheavy   ! minimum pt for at least one heavy final state
 0.0  = xptj ! minimum pt for at least one jet  
 #*********************************************************************
 # Control the pt's of the jets sorted by pt                          *
 #*********************************************************************
 0.0   = ptj1min ! minimum pt for the leading jet in pt
 0.0   = ptj2min ! minimum pt for the second jet in pt
 -1.0  = ptj1max ! maximum pt for the leading jet in pt 
 -1.0  = ptj2max ! maximum pt for the second jet in pt
 0   = cutuse  ! reject event if fails any (0) / all (1) jet pt cuts
 #*********************************************************************
 # Control the Ht(k)=Sum of k leading jets                            *
 #*********************************************************************
 0.0   = htjmin ! minimum jet HT=Sum(jet pt)
 -1.0  = htjmax ! maximum jet HT=Sum(jet pt)
 0.0   = ihtmin  !inclusive Ht for all partons (including b)
 -1.0  = ihtmax  !inclusive Ht for all partons (including b)
 #*********************************************************************
 # WBF cuts                                                           *
 #*********************************************************************
 0.0   = xetamin ! minimum rapidity for two jets in the WBF case  
 0.0   = deltaeta ! minimum rapidity for two jets in the WBF case 
#*********************************************************************
# maximal pdg code for quark to be considered as a light jet         *
# (otherwise b cuts are applied)                                     *
#*********************************************************************
 4 = maxjetflavor    ! Maximum jet pdg code
#*********************************************************************
#
#*********************************************************************
# Store info for systematics studies                                 *
# WARNING: Do not use for interference type of computation           *
#*********************************************************************
   True  = use_syst      ! Enable systematics studies
#
systematics = systematics_program ! none, systematics [python], SysCalc [depreceted, C++]
['--mur=0.5,1,2', '--muf=0.5,1,2', '--pdf=errorset'] = systematics_arguments ! see: https://cp3.irmp.ucl.ac.be/projects/madgraph/wiki/Systematics#Systematicspythonmodule

#*********************************************************************
# Options for the cudacpp plugin
#*********************************************************************

# Set cudacpp-specific values of non-cudacpp-specific options
-O3 -ffast-math -fbounds-check = global_flag ! build flags for Fortran code (for a fair comparison to cudacpp)

# New cudacpp-specific options (default values are defined in banner.py)
CPP = cudacpp_backend ! valid backends are FORTRAN, CPP, CUDA
]]>
</MGRunCard>
<slha>
######################################################################
## PARAM_CARD AUTOMATICALY GENERATED BY MG5 FOLLOWING UFO MODEL   ####
######################################################################
##                                                                  ##
##  Width set on Auto will be computed following the information    ##
##        present in the decay.py files of the model.               ##
##        See  arXiv:1402.1178 for more details.                    ##
##                                                                  ##
######################################################################

###################################
## INFORMATION FOR MASS
###################################
Block mass 
    5 4.700000e+00 # MB 
    6 1.730000e+02 # MT 
   15 1.777000e+00 # MTA 
   23 9.118800e+01 # MZ 
   25 1.250000e+02 # MH 
## Dependent parameters, given by model restrictions.
## Those values should be edited following the 
## analytical expression. MG5 ignores those values 
## but they are important for interfacing the output of MG5
## to external program such as Pythia.
  1 0.000000e+00 # d : 0.0 
  2 0.000000e+00 # u : 0.0 
  3 0.000000e+00 # s : 0.0 
  4 0.000000e+00 # c : 0.0 
  11 0.000000e+00 # e- : 0.0 
  12 0.000000e+00 # ve : 0.0 
  13 0.000000e+00 # mu- : 0.0 
  14 0.000000e+00 # vm : 0.0 
  16 0.000000e+00 # vt : 0.0 
  21 0.000000e+00 # g : 0.0 
  22 0.000000e+00 # a : 0.0 
  24 8.041900e+01 # w+ : cmath.sqrt(MZ__exp__2/2. + cmath.sqrt(MZ__exp__4/4. - (aEW*cmath.pi*MZ__exp__2)/(Gf*sqrt__2))) 

###################################
## INFORMATION FOR SMINPUTS
###################################
Block sminputs 
    1 1.325070e+02 # aEWM1 
    2 1.166390e-05 # Gf 
    3 1.180000e-01 # aS (Note that Parameter not used if you use a PDF set) 

###################################
## INFORMATION FOR YUKAWA
###################################
Block yukawa 
    5 4.700000e+00 # ymb 
    6 1.730000e+02 # ymt 
   15 1.777000e+00 # ymtau 

###################################
## INFORMATION FOR DECAY
###################################
DECAY   6 1.491500e+00 # WT 
DECAY  23 2.441404e+00 # WZ 
DECAY  24 2.047600e+00 # WW 
DECAY  25 6.382339e-03 # WH 
## Dependent parameters, given by model restrictions.
## Those values should be edited following the 
## analytical expression. MG5 ignores those values 
## but they are important for interfacing the output of MG5
## to external program such as Pythia.
DECAY  1 0.000000e+00 # d : 0.0 
DECAY  2 0.000000e+00 # u : 0.0 
DECAY  3 0.000000e+00 # s : 0.0 
DECAY  4 0.000000e+00 # c : 0.0 
DECAY  5 0.000000e+00 # b : 0.0 
DECAY  11 0.000000e+00 # e- : 0.0 
DECAY  12 0.000000e+00 # ve : 0.0 
DECAY  13 0.000000e+00 # mu- : 0.0 
DECAY  14 0.000000e+00 # vm : 0.0 
DECAY  15 0.000000e+00 # ta- : 0.0 
DECAY  16 0.000000e+00 # vt : 0.0 
DECAY  21 0.000000e+00 # g : 0.0 
DECAY  22 0.000000e+00 # a : 0.0
</slha>
<MGGenerationInfo>
#  Number of Events        :       1000
#  Integrated weight (pb)  :       251.68323346000005
</MGGenerationInfo>
</header>
<init>
2212 2212 6.500000e+03 6.500000e+03 0 0 247000 247000 -4 1
2.516832e+02 5.918994e-01 2.516832e+02 1
<generator name='MadGraph5_aMC@NLO' version='3.5.0_lo_vect'>please cite 1405.0301 </generator>
</init>
<event>
 6      1 +2.5168323e+02 3.50213400e+02 7.54677100e-03 1.16820100e-01
       21 -1    0    0  504  502 +0.0000000000e+00 +0.0000000000e+00 +1.4196603770e+03 1.4196603770e+03 0.0000000000e+00 0.0000e+00 1.0000e+00
       21 -1    0    0  505  503 -0.0000000000e+00 -0.0000000000e+00 -3.3032332616e+02 3.3032332616e+02 0.0000000000e+00 0.0000e+00 -1.0000e+00
        6  1    1    2  501    0 -1.5997849182e+02 -1.1074738068e+02 -9.0000357016e+01 2.7547625022e+02 1.7300000000e+02 0.0000e+00 -1.0000e+00
       -6  1    1    2    0  503 +3.5646546006e+02 -1.1492751902e+02 +4.2930091219e+02 5.9540257982e+02 1.7300000000e+02 0.0000e+00 1.0000e+00
       21  1    1    2  504  501 -1.7464386268e+02 +2.0730110149e+02 +2.2219525015e+02 3.5049244591e+02 0.0000000000e+00 0.0000e+00 -1.0000e+00
       21  1    1    2  505  502 -2.1843105559e+01 +1.8373798214e+01 +5.2784124551e+02 5.2861242719e+02 0.0000000000e+00 0.0000e+00 1.0000e+00
<mgrwt>
<rscale>  4 0.32538132E+03</rscale>
<asrwt>0</asrwt>
<pdfrwt beam="1">  1       21 0.21840929E+00 0.35021337E+03</pdfrwt>
<pdfrwt beam="2">  1       21 0.50818974E-01 0.35021337E+03</pdfrwt>
<totfact> 0.32649541E+02</totfact>
</mgrwt>
</event>
<event>
 6      1 +2.5168323e+02 4.35920500e+02 7.54677100e-03 1.16519500e-01
       21 -1    0    0  505  502 +0.0000000000e+00 +0.0000000000e+00 +1.3466680543e+03 1.3466680543e+03 0.0000000000e+00 0.0000e+00 -1.0000e+00
       21 -1    0    0  504  503 -0.0000000000e+00 -0.0000000000e+00 -3.3374472269e+02 3.3374472269e+02 0.0000000000e+00 0.0000e+00 1.0000e+00
        6  1    1    2  501    0 -7.9615298359e+01 +4.2848595612e+02 -5.4382713057e+01 4.7204373717e+02 1.7300000000e+02 0.0000e+00 1.0000e+00
       -6  1    1    2    0  503 +1.3688207337e+02 -2.4015561575e+02 +7.6751031819e+02 8.3391397057e+02 1.7300000000e+02 0.0000e+00 -1.0000e+00
       21  1    1    2  504  502 -1.7890288770e+01 -5.1630293748e+01 +1.8115751526e+02 1.8921890761e+02 0.0000000000e+00 0.0000e+00 -1.0000e+00
       21  1    1    2  505  501 -3.9376486242e+01 -1.3670004662e+02 +1.1863821122e+02 1.8523616163e+02 0.0000000000e+00 0.0000e+00 1.0000e+00
<mgrwt>
<rscale>  4 0.43592051E+03</rscale>
<asrwt>0</asrwt>
<pdfrwt beam="1">  1       21 0.20717970E+00 0.43592051E+03</pdfrwt>
<pdfrwt beam="2">  1       21 0.51345343E-01 0.43592051E+03</pdfrwt>
<totfact> 0.35824178E+02</totfact>
</mgrwt>
</event>
<event>
 6      1 +2.5168323e+02 2.69100300e+02 7.54677100e-03 1.05831300e-01
       21 -1    0    0  504  502 +0.0000000000e+00 +0.0000000000e+00 +2.9538533982e+02 2.9538533982e+02 0.0000000000e+00 0.0000e+00 -1.0000e+00
       21 -1    0    0  501  503 -0.0000000000e+00 -0.0000000000e+00 -5.3821577233e+02 5.3821577233e+02 0.0000000000e+00 0.0000e+00 1.0000e+00
        6  1    1    2  501    0 -1.4380520525e+02 -1.2428612981e+02 -3.0870321155e+02 4.0168850113e+02 1.7300000000e+02 0.0000e+00 1.0000e+00
       -6  1    1    2    0  505 +2.0506255474e+02 +1.6027890491e+02 -1.2252612033e-01 3.1252038930e+02 1.7300000000e+02 0.0000e+00 -1.0000e+00
       21  1    1    2  504  503 -9.7877876833e+00 +1.9443527045e+01 +5.2935702807e+00 2.2402531509e+01 0.0000000000e+00 0.0000e+00 -1.0000e+00
       21  1    1    2  505  502 -5.1469561809e+01 -5.5436302140e+01 +6.0701734885e+01 9.6989690204e+01 0.0000000000e+00 0.0000e+00 1.0000e+00
<mgrwt>
<rscale>  4 0.26910029E+03</rscale>
<asrwt>0</asrwt>
<pdfrwt beam="1">  1       21 0.45443899E-01 0.26910029E+03</pdfrwt>
<pdfrwt beam="2">  1       21 0.82802426E-01 0.26910029E+03</pdfrwt>
<totfact> 0.56147951E+03</totfact>
</mgrwt>
</event>
<event>
 6      1 +2.5168323e+02 2.10539500e+02 7.54677100e-03 1.12989000e-01
       21 -1    0    0  501  502 +0.0000000000e+00 +0.0000000000e+00 +3.8201027954e+02 3.8201027954e+02 0.0000000000e+00 0.0000e+00 1.0000e+00
       21 -1    0    0  502  503 -0.0000000000e+00 -0.0000000000e+00 -4.3053127678e+02 4.3053127678e+02 0.0000000000e+00 0.0000e+00 -1.0000e+00
        6  1    1    2  501    0 -1.2495212980e+02 -3.1231972995e+01 +2.2190817021e+02 3.0945226915e+02 1.7300000000e+02 0.0000e+00 1.0000e+00
       -6  1    1    2    0  505 +9.8217275770e+01 +2.7514319754e+01 +2.2953574417e+01 2.0213742264e+02 1.7300000000e+02 0.0000e+00 1.0000e+00
       21  1    1    2  504  503 +1.3765202920e+01 +2.0719025201e+01 -2.6077046729e+02 2.6195418574e+02 0.0000000000e+00 0.0000e+00 -1.0000e+00
       21  1    1    2  505  504 +1.2969651110e+01 -1.7001371960e+01 -3.2612274576e+01 3.8997678796e+01 0.0000000000e+00 0.0000e+00 -1.0000e+00
<mgrwt>
<rscale>  4 0.21053951E+03</rscale>
<asrwt>0</asrwt>
<pdfrwt beam="1">  1       21 0.58770813E-01 0.21053951E+03</pdfrwt>
<pdfrwt beam="2">  1       21 0.66235581E-01 0.21053951E+03</pdfrwt>
<totfact> 0.55905081E+03</totfact>
</mgrwt>
</event>
<event>
 6      1 +2.5168323e+02 2.19704000e+02 7.54677100e-03 1.16820100e-01
       21 -1    0    0  505  502 +0.0000000000e+00 +0.0000000000e+00 +2.1493199194e+02 2.1493199194e+02 0.0000000000e+00 0.0000e+00 -1.0000e+00
       21 -1    0    0  501  503 -0.0000000000e+00 -0.0000000000e+00 -8.0951024867e+02 8.0951024867e+02 0.0000000000e+00 0.0000e+00 -1.0000e+00
        6  1    1    2  501    0 -1.7564560092e+02 +3.5317381631e+00 -1.3127423225e+02 2.7933094055e+02 1.7300000000e+02 0.0000e+00 -1.0000e+00
       -6  1    1    2    0  502 +1.0037184682e+02 +8.2095838510e+00 -6.1733609315e+01 2.0948017429e+02 1.7300000000e+02 0.0000e+00 -1.0000e+00
       21  1    1    2  504  503 +4.3859972109e+01 -8.9886225080e+00 -4.6375329175e+02 4.6590944195e+02 0.0000000000e+00 0.0000e+00 -1.0000e+00
       21  1    1    2  505  504 +3.1413781989e+01 -2.7526995061e+00 +6.2182876585e+01 6.9721683814e+01 0.0000000000e+00 0.0000e+00 -1.0000e+00
<mgrwt>
<rscale>  4 0.21970397E+03</rscale>
<asrwt>0</asrwt>
<pdfrwt beam="1">  1       21 0.33066461E-01 0.21970397E+03</pdfrwt>
<pdfrwt beam="2">  1       21 0.12454004E+00 0.21970397E+03</pdfrwt>
<totfact> 0.41480906E+03</totfact>
</mgrwt>
</event>
<event>
 6      1 +2.5168323e+02 1.82310700e+02 7.54677100e-03 1.06249800e-01
       21 -1    0    0  504  502 +0.0000000000e+00 +0.0000000000e+00 +2.2975644979e+01 2.2975644979e+01 0.0000000000e+00 0.0000e+00 1.0000e+00
       21 -1    0    0  501  503 -0.0000000000e+00 -0.0000000000e+00 -2.7389891426e+03 2.7389891426e+03 0.0000000000e+00 0.0000e+00 1.0000e+00
        6  1    1    2  501    0 -3.9774343668e+01 +7.1860697376e+01 -1.5645874547e+03 1.5762642106e+03 1.7300000000e+02 0.0000e+00 -1.0000e+00
       -6  1    1    2    0  505 +1.6956162126e+01 -2.2147607062e+01 -1.0768420705e+03 1.0910068161e+03 1.7300000000e+02 0.0000e+00 1.0000e+00
       21  1    1    2  504  503 +1.5964357093e+00 -2.0302213228e+01 -1.6470743515e+01 2.6191866311e+01 0.0000000000e+00 0.0000e+00 -1.0000e+00
       21  1    1    2  505  502 +2.1221745833e+01 -2.9410877086e+01 -5.8113228909e+01 6.8501894583e+01 0.0000000000e+00 0.0000e+00 -1.0000e+00
<mgrwt>
<rscale>  4 0.18231074E+03</rscale>
<asrwt>0</asrwt>
<pdfrwt beam="1">  1       21 0.35347129E-02 0.18231074E+03</pdfrwt>
<pdfrwt beam="2">  1       21 0.42138315E+00 0.18231074E+03</pdfrwt>
<totfact> 0.31261454E+03</totfact>
</mgrwt>
</event>
<event>
 6      1 +2.5168323e+02 1.87703800e+02 7.54677100e-03 1.16820100e-01
       21 -1    0    0  505  502 +0.0000000000e+00 +0.0000000000e+00 +4.1806894661e+02 4.1806894661e+02 0.0000000000e+00 0.0000e+00 -1.0000e+00
       21 -1    0    0  501  503 -0.0000000000e+00 -0.0000000000e+00 -2.9525581915e+02 2.9525581915e+02 0.0000000000e+00 0.0000e+00 -1.0000e+00
        6  1    1    2  501    0 +4.6171834627e+01 +4.9118598774e+01 -1.3074683553e+02 2.2708634935e+02 1.7300000000e+02 0.0000e+00 -1.0000e+00
       -6  1    1    2    0  502 -9.7891705627e+01 -1.0591826116e+01 +1.5755756016e+00 1.9906394764e+02 1.7300000000e+02 0.0000e+00 -1.0000e+00
       21  1    1    2  504  503 +2.0168947555e+01 -3.3650637357e+01 +6.6743578280e+00 3.9795714498e+01 0.0000000000e+00 0.0000e+00 1.0000e+00
       21  1    1    2  505  504 +3.1550923445e+01 -4.8761353003e+00 +2.4531002956e+02 2.4737875427e+02 0.0000000000e+00 0.0000e+00 -1.0000e+00
<mgrwt>
<rscale>  4 0.18770383E+03</rscale>
<asrwt>0</asrwt>
<pdfrwt beam="1">  1       21 0.64318299E-01 0.18770383E+03</pdfrwt>
<pdfrwt beam="2">  1       21 0.45423972E-01 0.18770383E+03</pdfrwt>
<totfact> 0.10400770E+04</totfact>
</mgrwt>
</event>
<event>
 6      1 +2.5168323e+02 3.31911700e+02 7.54677100e-03 1.06249800e-01
       21 -1    0    0  501  502 +0.0000000000e+00 +0.0000000000e+00 +1.6886407886e+02 1.6886407886e+02 0.0000000000e+00 0.0000e+00 1.0000e+00
       21 -1    0    0  502  503 -0.0000000000e+00 -0.0000000000e+00 -1.3277964369e+03 1.3277964369e+03 0.0000000000e+00 0.0000e+00 1.0000e+00
        6  1    1    2  501    0 -2.3552816819e+02 +4.3009320989e+01 -5.3510543129e+02 6.1122020770e+02 1.7300000000e+02 0.0000e+00 1.0000e+00
       -6  1    1    2    0  504 -6.4353600753e+01 -1.8191090908e+02 -3.6145559490e+02 4.4476073552e+02 1.7300000000e+02 0.0000e+00 -1.0000e+00
       21  1    1    2  504  505 +2.9148817895e+02 +1.5744061390e+02 -2.5790975253e+02 4.1984562142e+02 0.0000000000e+00 0.0000e+00 1.0000e+00
       21  1    1    2  505  503 +8.3935899965e+00 -1.8539025809e+01 -4.4615793513e+00 2.0833951168e+01 0.0000000000e+00 0.0000e+00 -1.0000e+00
<mgrwt>
<rscale>  4 0.31286251E+03</rscale>
<asrwt>0</asrwt>
<pdfrwt beam="1">  1       21 0.25979089E-01 0.33191173E+03</pdfrwt>
<pdfrwt beam="2">  1       21 0.20427637E+00 0.33191173E+03</pdfrwt>
<totfact> 0.15846775E+03</totfact>
</mgrwt>
</event>
<event>
 6      1 +2.5168323e+02 2.24053400e+02 7.54677100e-03 1.15942100e-01
       21 -1    0    0  504  502 +0.0000000000e+00 +0.0000000000e+00 +2.0612600711e+02 2.0612600711e+02 0.0000000000e+00 0.0000e+00 -1.0000e+00
       21 -1    0    0  501  503 -0.0000000000e+00 -0.0000000000e+00 -4.8194032121e+02 4.8194032121e+02 0.0000000000e+00 0.0000e+00 -1.0000e+00
        6  1    1    2  501    0 +8.2619885370e+01 -1.5016339039e+02 -6.8527353068e+01 2.5298238553e+02 1.7300000000e+02 0.0000e+00 -1.0000e+00
       -6  1    1    2    0  502 +7.0715995065e+00 +1.3129790373e+02 -1.0992063215e+01 2.1757521113e+02 1.7300000000e+02 0.0000e+00 -1.0000e+00
       21  1    1    2  504  505 -2.8963390300e+01 +1.5547429758e+01 -6.9507245609e+01 7.6888606060e+01 0.0000000000e+00 0.0000e+00 -1.0000e+00
       21  1    1    2  505  503 -6.0728094577e+01 +3.3180568997e+00 -1.2678765220e+02 1.4062012560e+02 0.0000000000e+00 0.0000e+00 -1.0000e+00
<mgrwt>
<rscale>  4 0.22405339E+03</rscale>
<asrwt>0</asrwt>
<pdfrwt beam="1">  1       21 0.31711694E-01 0.22405339E+03</pdfrwt>
<pdfrwt beam="2">  1       21 0.74144664E-01 0.22405339E+03</pdfrwt>
<totfact> 0.15296650E+04</totfact>
</mgrwt>
</event>
<event>
 6      1 +2.5168323e+02 1.77004500e+02 7.54677100e-03 1.16820100e-01
       21 -1    0    0  504  502 +0.0000000000e+00 +0.0000000000e+00 +3.1745469788e+02 3.1745469788e+02 0.0000000000e+00 0.0000e+00 -1.0000e+00
       21 -1    0    0  501  503 -0.0000000000e+00 -0.0000000000e+00 -1.0959264880e+03 1.0959264880e+03 0.0000000000e+00 0.0000e+00 -1.0000e+00
        6  1    1    2  501    0 -1.0819908330e+01 +2.2631738745e+01 -5.9847256431e+02 6.2348029339e+02 1.7300000000e+02 0.0000e+00 -1.0000e+00
       -6  1    1    2    0  505 -1.8463166560e+01 +8.2638526004e+01 -1.4511950467e+02 2.4116111862e+02 1.7300000000e+02 0.0000e+00 -1.0000e+00
       21  1    1    2  504  503 +1.6968030564e+00 -6.5244954192e+01 -2.8579819464e+02 2.9315591627e+02 0.0000000000e+00 0.0000e+00 1.0000e+00
       21  1    1    2  505  502 +2.7586271833e+01 -4.0025310557e+01 +2.5091847354e+02 2.5558385756e+02 0.0000000000e+00 0.0000e+00 -1.0000e+00
<mgrwt>
<rscale>  4 0.17700446E+03</rscale>
<asrwt>0</asrwt>
<pdfrwt beam="1">  1       21 0.48839185E-01 0.17700446E+03</pdfrwt>
<pdfrwt beam="2">  1       21 0.16860407E+00 0.17700446E+03</pdfrwt>
<totfact> 0.88898899E+02</totfact>
</mgrwt>
</event>
<event>
 6      1 +2.5168323e+02 2.49189300e+02 7.54677100e-03 1.03924000e-01
       21 -1    0    0  504  502 +0.0000000000e+00 +0.0000000000e+00 +6.3158194226e+02 6.3158194226e+02 0.0000000000e+00 0.0000e+00 1.0000e+00
       21 -1    0    0  501  503 -0.0000000000e+00 -0.0000000000e+00 -7.1033853838e+02 7.1033853838e+02 0.0000000000e+00 0.0000e+00 1.0000e+00
        6  1    1    2  501    0 -6.6005369083e+01 +2.0073754265e+02 -2.4792239736e+02 3.6884520451e+02 1.7300000000e+02 0.0000e+00 -1.0000e+00
       -6  1    1    2    0  505 +1.9119979675e+02 -5.0869420540e+01 -3.3556710660e+02 4.2623859898e+02 1.7300000000e+02 0.0000e+00 1.0000e+00
       21  1    1    2  504  503 -1.0569933322e+02 -1.1843592916e+02 +3.0635644397e+02 3.4504157593e+02 0.0000000000e+00 0.0000e+00 1.0000e+00
       21  1    1    2  505  502 -1.9495094447e+01 -3.1432192950e+01 +1.9837646387e+02 2.0179510123e+02 0.0000000000e+00 0.0000e+00 -1.0000e+00
<mgrwt>
<rscale>  4 0.24918934E+03</rscale>
<asrwt>0</asrwt>
<pdfrwt beam="1">  1       21 0.97166453E-01 0.24918934E+03</pdfrwt>
<pdfrwt beam="2">  1       21 0.10928285E+00 0.24918934E+03</pdfrwt>
<totfact> 0.55159294E+02</totfact>
</mgrwt>
</event>
<event>
 6      1 +2.5168323e+02 2.15554500e+02 7.54677100e-03 1.11471900e-01
       21 -1    0    0  503  502 +0.0000000000e+00 +0.0000000000e+00 +1.3702087658e+02 1.3702087658e+02 0.0000000000e+00 0.0000e+00 1.0000e+00
       21 -1    0    0  501  503 -0.0000000000e+00 -0.0000000000e+00 -6.3678744050e+02 6.3678744050e+02 0.0000000000e+00 0.0000e+00 -1.0000e+00
        6  1    1    2  501    0 -7.1312632199e+01 +1.0286342137e+02 -3.8368626528e+01 2.1695051618e+02 1.7300000000e+02 0.0000e+00 1.0000e+00
       -6  1    1    2    0  504 +1.3825638953e+01 -1.5189452544e+02 -3.3036703028e+02 4.0290752022e+02 1.7300000000e+02 0.0000e+00 -1.0000e+00
       21  1    1    2  504  505 +3.3224517331e+01 +4.4622527560e+01 -9.8554883398e+01 1.1317289233e+02 0.0000000000e+00 0.0000e+00 -1.0000e+00
       21  1    1    2  505  502 +2.4262475915e+01 +4.4085765033e+00 -3.2476023716e+01 4.0777388351e+01 0.0000000000e+00 0.0000e+00 -1.0000e+00
<mgrwt>
<rscale>  4 0.21555449E+03</rscale>
<asrwt>0</asrwt>
<pdfrwt beam="1">  1       21 0.21080135E-01 0.21555449E+03</pdfrwt>
<pdfrwt beam="2">  1       21 0.97967299E-01 0.21555449E+03</pdfrwt>
<totfact> 0.17772513E+04</totfact>
</mgrwt>
</event>
<event>
 6      1 +2.5168323e+02 2.44375300e+02 7.54677100e-03 1.11471900e-01
       21 -1    0    0  503  502 +0.0000000000e+00 +0.0000000000e+00 +5.1573013071e+02 5.1573013071e+02 0.0000000000e+00 0.0000e+00 1.0000e+00
       21 -1    0    0  501  503 -0.0000000000e+00 -0.0000000000e+00 -2.7398974451e+02 2.7398974451e+02 0.0000000000e+00 0.0000e+00 1.0000e+00
        6  1    1    2  501    0 +3.5619999945e+01 +6.5370208214e+01 +1.5848390465e+02 2.4614669721e+02 1.7300000000e+02 0.0000e+00 1.0000e+00
       -6  1    1    2    0  504 -5.5173017291e+01 -2.2937879505e+02 -2.1801019143e+01 2.9336492274e+02 1.7300000000e+02 0.0000e+00 1.0000e+00
       21  1    1    2  504  505 -1.0202110732e+01 -1.9722623660e+01 -1.6709982573e+01 2.7790078535e+01 0.0000000000e+00 0.0000e+00 1.0000e+00
       21  1    1    2  505  502 +2.9755128079e+01 +1.8373121050e+02 +1.2176748328e+02 2.2241817673e+02 0.0000000000e+00 0.0000e+00 1.0000e+00
<mgrwt>
<rscale>  4 0.24437527E+03</rscale>
<asrwt>0</asrwt>
<pdfrwt beam="1">  1       21 0.79343097E-01 0.24437527E+03</pdfrwt>
<pdfrwt beam="2">  1       21 0.42152269E-01 0.24437527E+03</pdfrwt>
<totfact> 0.73306856E+03</totfact>
</mgrwt>
</event>
<event>
 6      1 +2.5168323e+02 2.13001200e+02 7.54677100e-03 1.16820100e-01
       21 -1    0    0  504  502 +0.0000000000e+00 +0.0000000000e+00 +9.1887736552e+02 9.1887736552e+02 0.0000000000e+00 0.0000e+00 1.0000e+00
       21 -1    0    0  501  503 -0.0000000000e+00 -0.0000000000e+00 -3.2480501306e+02 3.2480501306e+02 0.0000000000e+00 0.0000e+00 -1.0000e+00
        6  1    1    2  501    0 +5.8588275828e+01 +1.0584077258e+02 -1.3800544945e+02 2.5220895956e+02 1.7300000000e+02 0.0000e+00 -1.0000e+00
       -6  1    1    2    0  505 +1.9548050161e+01 -1.5097900469e+02 +4.3702053644e+01 2.3455416350e+02 1.7300000000e+02 0.0000e+00 1.0000e+00
       21  1    1    2  504  503 -5.8368460403e+01 +3.0402253515e+01 -2.2533078333e+00 6.5850220841e+01 0.0000000000e+00 0.0000e+00 -1.0000e+00
       21  1    1    2  505  502 -1.9767865586e+01 +1.4735978600e+01 +6.9062905609e+02 6.9106903468e+02 0.0000000000e+00 0.0000e+00 1.0000e+00
<mgrwt>
<rscale>  4 0.21300123E+03</rscale>
<asrwt>0</asrwt>
<pdfrwt beam="1">  1       21 0.14136575E+00 0.21300123E+03</pdfrwt>
<pdfrwt beam="2">  1       21 0.49970002E-01 0.21300123E+03</pdfrwt>
<totfact> 0.13052195E+03</totfact>
</mgrwt>
</event>
<event>
 6      1 +2.5168323e+02 3.55374100e+02 7.54677100e-03 1.03924000e-01
       21 -1    0    0  504  502 +0.0000000000e+00 +0.0000000000e+00 +4.2605128230e+02 4.2605128230e+02 0.0000000000e+00 0.0000e+00 -1.0000e+00
       21 -1    0    0  501  503 -0.0000000000e+00 -0.0000000000e+00 -9.0410214148e+02 9.0410214148e+02 0.0000000000e+00 0.0000e+00 1.0000e+00
        6  1    1    2  501    0 -3.6136844865e+02 -1.0181691401e+01 -4.6125020313e+02 6.1104138355e+02 1.7300000000e+02 0.0000e+00 1.0000e+00
       -6  1    1    2    0  505 +2.5728290792e+02 +6.3672042814e+01 -2.7835331411e+02 4.2149518529e+02 1.7300000000e+02 0.0000e+00 -1.0000e+00
       21  1    1    2  504  503 +9.3938839556e+01 -8.3422912999e+00 +1.9435199754e+02 2.1602499473e+02 0.0000000000e+00 0.0000e+00 -1.0000e+00
       21  1    1    2  505  502 +1.0146701179e+01 -4.5148060113e+01 +6.7200660525e+01 8.1591860205e+01 0.0000000000e+00 0.0000e+00 1.0000e+00
<mgrwt>
<rscale>  4 0.35537409E+03</rscale>
<asrwt>0</asrwt>
<pdfrwt beam="1">  1       21 0.65546352E-01 0.35537409E+03</pdfrwt>
<pdfrwt beam="2">  1       21 0.13909264E+00 0.35537409E+03</pdfrwt>
<totfact> 0.68541646E+02</totfact>
</mgrwt>
</event>
<event>
 6      1 +2.5168323e+02 3.28158800e+02 7.54677100e-03 1.16820100e-01
       21 -1    0    0  505  502 +0.0000000000e+00 +0.0000000000e+00 +1.6537453084e+02 1.6537453084e+02 0.0000000000e+00 0.0000e+00 1.0000e+00
       21 -1    0    0  501  503 -0.0000000000e+00 -0.0000000000e+00 -9.6951561088e+02 9.6951561088e+02 0.0000000000e+00 0.0000e+00 -1.0000e+00
        6  1    1    2  501    0 +2.4078779261e+02 +1.4341789925e+02 -4.3208162041e+02 5.4329640307e+02 1.7300000000e+02 0.0000e+00 -1.0000e+00
       -6  1    1    2    0  502 -2.3682694075e+02 -1.4437001470e+02 -3.9279288648e+02 5.1102343653e+02 1.7300000000e+02 0.0000e+00 -1.0000e+00
       21  1    1    2  504  503 -2.1505481426e+01 -1.7659267646e+01 -1.8729891396e+01 3.3543170644e+01 0.0000000000e+00 0.0000e+00 -1.0000e+00
       21  1    1    2  505  504 +1.7544629564e+01 +1.8611383103e+01 +3.9463318254e+01 4.7027131479e+01 0.0000000000e+00 0.0000e+00 1.0000e+00
<mgrwt>
<rscale>  4 0.32815875E+03</rscale>
<asrwt>0</asrwt>
<pdfrwt beam="1">  1       21 0.25442236E-01 0.32815875E+03</pdfrwt>
<pdfrwt beam="2">  1       21 0.14915625E+00 0.32815875E+03</pdfrwt>
<totfact> 0.40600933E+03</totfact>
</mgrwt>
</event>
<event>
 6      1 +2.5168323e+02 1.86330100e+02 7.54677100e-03 1.16820100e-01
       21 -1    0    0  505  502 +0.0000000000e+00 +0.0000000000e+00 +8.5087425495e+02 8.5087425495e+02 0.0000000000e+00 0.0000e+00 -1.0000e+00
       21 -1    0    0  501  503 -0.0000000000e+00 -0.0000000000e+00 -3.0799567981e+02 3.0799567981e+02 0.0000000000e+00 0.0000e+00 1.0000e+00
        6  1    1    2  501    0 -5.3173218962e+01 +3.9449673845e+01 +1.3121283517e+02 2.2700104866e+02 1.7300000000e+02 0.0000e+00 1.0000e+00
       -6  1    1    2    0  502 +1.0346681207e+01 -6.9532792974e+01 +4.0513587948e+02 4.4610082264e+02 1.7300000000e+02 0.0000e+00 -1.0000e+00
       21  1    1    2  504  503 +3.2134526348e+00 +2.2631501074e+01 -2.3741633480e+02 2.3851420744e+02 0.0000000000e+00 0.0000e+00 1.0000e+00
       21  1    1    2  505  504 +3.9613085120e+01 +7.4516180547e+00 +2.4394619529e+02 2.4725385603e+02 0.0000000000e+00 0.0000e+00 -1.0000e+00
<mgrwt>
<rscale>  4 0.18633007E+03</rscale>
<asrwt>0</asrwt>
<pdfrwt beam="1">  1       21 0.13090373E+00 0.18633007E+03</pdfrwt>
<pdfrwt beam="2">  1       21 0.47383951E-01 0.18633007E+03</pdfrwt>
<totfact> 0.18206555E+03</totfact>
</mgrwt>
</event>
<event>
 6      1 +2.5168323e+02 1.80329800e+02 7.54677100e-03 1.16820100e-01
       21 -1    0    0  505  502 +0.0000000000e+00 +0.0000000000e+00 +1.6667402294e+02 1.6667402294e+02 0.0000000000e+00 0.0000e+00 -1.0000e+00
       21 -1    0    0  501  503 -0.0000000000e+00 -0.0000000000e+00 -8.9108459497e+02 8.9108459497e+02 0.0000000000e+00 0.0000e+00 -1.0000e+00
        6  1    1    2  501    0 -9.2118065806e+01 -1.0368375247e+02 -1.9071919576e+02 2.9247028944e+02 1.7300000000e+02 0.0000e+00 -1.0000e+00
       -6  1    1    2    0  502 -3.4036306372e+01 +2.2041872451e+01 -5.0078601881e+02 5.3137552722e+02 1.7300000000e+02 0.0000e+00 -1.0000e+00
       21  1    1    2  504  503 +6.0851920941e+01 -8.6563672596e+00 -8.9777728363e+01 1.0880224945e+02 0.0000000000e+00 0.0000e+00 1.0000e+00
       21  1    1    2  505  504 +6.5302451237e+01 +9.0298247282e+01 +5.6872370898e+01 1.2511055180e+02 0.0000000000e+00 0.0000e+00 -1.0000e+00
<mgrwt>
<rscale>  4 0.18032981E+03</rscale>
<asrwt>0</asrwt>
<pdfrwt beam="1">  1       21 0.25642157E-01 0.18032981E+03</pdfrwt>
<pdfrwt beam="2">  1       21 0.13708994E+00 0.18032981E+03</pdfrwt>
<totfact> 0.55066210E+03</totfact>
</mgrwt>
</event>
<event>
 6      1 +2.5168323e+02 2.03366400e+02 7.54677100e-03 1.11910500e-01
       21 -1    0    0  501  502 +0.0000000000e+00 +0.0000000000e+00 +2.1448747364e+02 2.1448747364e+02 0.0000000000e+00 0.0000e+00 1.0000e+00
       21 -1    0    0  504  503 -0.0000000000e+00 -0.0000000000e+00 -8.5116606653e+02 8.5116606653e+02 0.0000000000e+00 0.0000e+00 1.0000e+00
        6  1    1    2  501    0 -3.3380950433e+01 -9.5152132296e+01 +7.3433042674e+01 2.1328297609e+02 1.7300000000e+02 0.0000e+00 1.0000e+00
       -6  1    1    2    0  503 -5.2734439698e+01 +1.4873362460e+02 -2.4060809876e+02 3.3574375557e+02 1.7300000000e+02 0.0000e+00 1.0000e+00
       21  1    1    2  504  505 -4.9937029740e+01 +7.1368251910e+00 -2.2269045241e+02 2.2833238668e+02 0.0000000000e+00 0.0000e+00 1.0000e+00
       21  1    1    2  505  502 +1.3605241987e+02 -6.0718317496e+01 -2.4681308439e+02 2.8829442183e+02 0.0000000000e+00 0.0000e+00 1.0000e+00
<mgrwt>
<rscale>  4 0.20336642E+03</rscale>
<asrwt>0</asrwt>
<pdfrwt beam="1">  1       21 0.32998073E-01 0.20336642E+03</pdfrwt>
<pdfrwt beam="2">  1       21 0.13094863E+00 0.20336642E+03</pdfrwt>
<totfact> 0.37182223E+03</totfact>
</mgrwt>
</event>
<event>
 6      1 +2.5168323e+02 1.87962700e+02 7.54677100e-03 1.16820100e-01
       21 -1    0    0  501  502 +0.0000000000e+00 +0.0000000000e+00 +8.0090219016e+02 8.0090219016e+02 0.0000000000e+00 0.0000e+00 1.0000e+00
       21 -1    0    0  504  503 -0.0000000000e+00 -0.0000000000e+00 -8.9369549979e+02 8.9369549979e+02 0.0000000000e+00 0.0000e+00 1.0000e+00
        6  1    1    2  501    0 -5.6106135846e+01 +2.5836693626e+01 +3.9644178872e+02 4.3693308992e+02 1.7300000000e+02 0.0000e+00 1.0000e+00
       -6  1    1    2    0  503 +1.3147930325e+02 +5.0154217736e+01 +2.3848532785e+02 3.2650651500e+02 1.7300000000e+02 0.0000e+00 1.0000e+00
       21  1    1    2  504  505 -9.4859933870e+01 -7.0594216500e+01 -8.2417128103e+02 8.3261050374e+02 0.0000000000e+00 0.0000e+00 1.0000e+00
       21  1    1    2  505  502 +1.9486766470e+01 -5.3966948617e+00 +9.6450854830e+01 9.8547581301e+01 0.0000000000e+00 0.0000e+00 1.0000e+00
<mgrwt>
<rscale>  4 0.18796275E+03</rscale>
<asrwt>0</asrwt>
<pdfrwt beam="1">  1       21 0.12321572E+00 0.18796275E+03</pdfrwt>
<pdfrwt beam="2">  1       21 0.13749162E+00 0.18796275E+03</pdfrwt>
<totfact> 0.18652574E+02</totfact>
</mgrwt>
</event>
<event>
 6      1 +2.5168323e+02 1.85224500e+02 7.54677100e-03 1.03924000e-01
       21 -1    0    0  501  502 +0.0000000000e+00 +0.0000000000e+00 +9.6473743840e+01 9.6473743840e+01 0.0000000000e+00 0.0000e+00 -1.0000e+00
       21 -1    0    0  504  503 -0.0000000000e+00 -0.0000000000e+00 -1.6056578786e+03 1.6056578786e+03 0.0000000000e+00 0.0000e+00 -1.0000e+00
        6  1    1    2  501    0 +6.0932505543e+01 -2.6882226124e+01 -1.3161580343e+02 2.2734806801e+02 1.7300000000e+02 0.0000e+00 -1.0000e+00
       -6  1    1    2    0  505 +2.5535802217e+00 +7.1154291868e+01 -1.3802367310e+03 1.3928574542e+03 1.7300000000e+02 0.0000e+00 -1.0000e+00
       21  1    1    2  504  502 -3.7456935157e+01 -1.4865706493e+01 +1.1015292603e+01 4.1777360999e+01 0.0000000000e+00 0.0000e+00 -1.0000e+00
       21  1    1    2  505  503 -2.6029150608e+01 -2.9406359251e+01 -8.3468929713e+00 4.0148739308e+01 0.0000000000e+00 0.0000e+00 1.0000e+00
<mgrwt>
<rscale>  4 0.18522450E+03</rscale>
<asrwt>0</asrwt>
<pdfrwt beam="1">  1       21 0.14842115E-01 0.18522450E+03</pdfrwt>
<pdfrwt beam="2">  1       21 0.24702428E+00 0.18522450E+03</pdfrwt>
<totfact> 0.27919062E+03</totfact>
</mgrwt>
</event>
<event>
 6      1 +2.5168323e+02 2.61596000e+02 7.54677100e-03 1.03924000e-01
       21 -1    0    0  504  502 +0.0000000000e+00 +0.0000000000e+00 +2.2323327181e+02 2.2323327181e+02 0.0000000000e+00 0.0000e+00 -1.0000e+00
       21 -1    0    0  501  503 -0.0000000000e+00 -0.0000000000e+00 -8.6008029211e+02 8.6008029211e+02 0.0000000000e+00 0.0000e+00 1.0000e+00
        6  1    1    2  501    0 +1.4198351839e+02 +1.1071717812e+02 -5.3599606402e+02 5.9130228621e+02 1.7300000000e+02 0.0000e+00 -1.0000e+00
       -6  1    1    2    0  505 +8.8904198797e+01 +3.3517257698e+01 -7.6742273439e+01 2.1176812711e+02 1.7300000000e+02 0.0000e+00 1.0000e+00
       21  1    1    2  504  503 -2.1695088302e+01 -3.2975165285e+01 +1.0362515455e+01 4.0809559034e+01 0.0000000000e+00 0.0000e+00 -1.0000e+00
       21  1    1    2  505  502 -2.0919262888e+02 -1.1125927054e+02 -3.4471198292e+01 2.3943359157e+02 0.0000000000e+00 0.0000e+00 -1.0000e+00
<mgrwt>
<rscale>  4 0.24380673E+03</rscale>
<asrwt>0</asrwt>
<pdfrwt beam="1">  1       21 0.34343580E-01 0.26159605E+03</pdfrwt>
<pdfrwt beam="2">  1       21 0.13232005E+00 0.26159605E+03</pdfrwt>
<totfact> 0.32033871E+03</totfact>
</mgrwt>
</event>
<event>
 6      1 +2.5168323e+02 1.87585300e+02 7.54677100e-03 1.12989000e-01
       21 -1    0    0  501  502 +0.0000000000e+00 +0.0000000000e+00 +2.4467611096e+02 2.4467611096e+02 0.0000000000e+00 0.0000e+00 1.0000e+00
       21 -1    0    0  502  503 -0.0000000000e+00 -0.0000000000e+00 -3.7561078191e+02 3.7561078191e+02 0.0000000000e+00 0.0000e+00 1.0000e+00
        6  1    1    2  501    0 +5.4894778187e+01 -6.1520676191e+01 +1.5287579793e+02 2.4514942354e+02 1.7300000000e+02 0.0000e+00 1.0000e+00
       -6  1    1    2    0  504 -1.9863073675e+01 +2.4540814525e+01 -1.4979122375e+02 2.3100477048e+02 1.7300000000e+02 0.0000e+00 1.0000e+00
       21  1    1    2  504  505 -1.0622668537e+01 +1.8040064972e+01 -6.9733295297e+01 7.2808086803e+01 0.0000000000e+00 0.0000e+00 -1.0000e+00
       21  1    1    2  505  503 -2.4409035976e+01 +1.8939796694e+01 -6.4285949837e+01 7.1324612039e+01 0.0000000000e+00 0.0000e+00 -1.0000e+00
<mgrwt>
<rscale>  4 0.18758532E+03</rscale>
<asrwt>0</asrwt>
<pdfrwt beam="1">  1       21 0.37642478E-01 0.18758532E+03</pdfrwt>
<pdfrwt beam="2">  1       21 0.57786274E-01 0.18758532E+03</pdfrwt>
<totfact> 0.19172617E+04</totfact>
</mgrwt>
</event>
<event>
 6      1 +2.5168323e+02 2.47200500e+02 7.54677100e-03 1.15942100e-01
       21 -1    0    0  504  502 +0.0000000000e+00 +0.0000000000e+00 +2.3006634873e+02 2.3006634873e+02 0.0000000000e+00 0.0000e+00 -1.0000e+00
       21 -1    0    0  501  503 -0.0000000000e+00 -0.0000000000e+00 -7.7180505674e+02 7.7180505674e+02 0.0000000000e+00 0.0000e+00 1.0000e+00
        6  1    1    2  501    0 -1.7697236971e+02 +1.5066952277e+02 -2.9619853409e+02 4.1434658962e+02 1.7300000000e+02 0.0000e+00 1.0000e+00
       -6  1    1    2    0  502 +1.1959118783e+02 -1.1105240496e+02 +8.0393648454e+01 2.5105144406e+02 1.7300000000e+02 0.0000e+00 -1.0000e+00
       21  1    1    2  504  505 +2.5333970551e+01 +6.6982363103e+00 -8.0397181902e+01 8.4559939045e+01 0.0000000000e+00 0.0000e+00 -1.0000e+00
       21  1    1    2  505  503 +3.2047211328e+01 -4.6315354117e+01 -2.4553664047e+02 2.5191343274e+02 0.0000000000e+00 0.0000e+00 1.0000e+00
<mgrwt>
<rscale>  4 0.24720051E+03</rscale>
<asrwt>0</asrwt>
<pdfrwt beam="1">  1       21 0.35394823E-01 0.24720051E+03</pdfrwt>
<pdfrwt beam="2">  1       21 0.11873924E+00 0.24720051E+03</pdfrwt>
<totfact> 0.40036789E+03</totfact>
</mgrwt>
</event>
<event>
 6      1 +2.5168323e+02 2.46560300e+02 7.54677100e-03 1.16820100e-01
       21 -1    0    0  501  502 +0.0000000000e+00 +0.0000000000e+00 +1.2410563959e+03 1.2410563959e+03 0.0000000000e+00 0.0000e+00 1.0000e+00
       21 -1    0    0  504  503 -0.0000000000e+00 -0.0000000000e+00 -1.1658092653e+02 1.1658092653e+02 0.0000000000e+00 0.0000e+00 1.0000e+00
        6  1    1    2  501    0 -2.3021726155e+02 +1.0214136516e+02 +7.2526230993e+02 7.8699889720e+02 1.7300000000e+02 0.0000e+00 1.0000e+00
       -6  1    1    2    0  503 +1.4009450166e+02 -1.3708855518e+01 +1.6425315847e+02 2.7698827084e+02 1.7300000000e+02 0.0000e+00 1.0000e+00
       21  1    1    2  504  505 +4.4326914523e+00 -6.0147308362e+01 +2.5312327975e+01 6.5406891107e+01 0.0000000000e+00 0.0000e+00 1.0000e+00
       21  1    1    2  505  502 +8.5690068430e+01 -2.8285201280e+01 +2.0964767297e+02 2.2824326326e+02 0.0000000000e+00 0.0000e+00 1.0000e+00
<mgrwt>
<rscale>  4 0.24656031E+03</rscale>
<asrwt>0</asrwt>
<pdfrwt beam="1">  1       21 0.19093174E+00 0.24656031E+03</pdfrwt>
<pdfrwt beam="2">  1       21 0.17935528E-01 0.24656031E+03</pdfrwt>
<totfact> 0.41539158E+03</totfact>
</mgrwt>
</event>
<event>
 6      1 +2.5168323e+02 3.16108300e+02 7.54677100e-03 1.05831300e-01
       21 -1    0    0  504  502 +0.0000000000e+00 +0.0000000000e+00 +9.9707064726e+02 9.9707064726e+02 0.0000000000e+00 0.0000e+00 1.0000e+00
       21 -1    0    0  501  503 -0.0000000000e+00 -0.0000000000e+00 -4.2764986966e+02 4.2764986966e+02 0.0000000000e+00 0.0000e+00 -1.0000e+00
        6  1    1    2  501    0 +2.6300839913e+02 -5.7675797473e+01 +7.1937007746e+02 7.8735139803e+02 1.7300000000e+02 0.0000e+00 1.0000e+00
       -6  1    1    2    0  505 -2.3644819539e+02 +5.6525681544e+01 -2.8013500491e+02 4.0927682899e+02 1.7300000000e+02 0.0000e+00 -1.0000e+00
       21  1    1    2  504  503 -2.9003107232e+01 -2.9438180891e+01 -3.8594759722e+01 5.6545045772e+01 0.0000000000e+00 0.0000e+00 1.0000e+00
       21  1    1    2  505  502 +2.4429034903e+00 +3.0588296820e+01 +1.6878046477e+02 1.7154724413e+02 0.0000000000e+00 0.0000e+00 1.0000e+00
<mgrwt>
<rscale>  4 0.31610833E+03</rscale>
<asrwt>0</asrwt>
<pdfrwt beam="1">  1       21 0.15339548E+00 0.31610833E+03</pdfrwt>
<pdfrwt beam="2">  1       21 0.65792288E-01 0.31610833E+03</pdfrwt>
<totfact> 0.53659469E+02</totfact>
</mgrwt>
</event>
<event>
 6      1 +2.5168323e+02 2.01295300e+02 7.54677100e-03 1.16820100e-01
       21 -1    0    0  501  502 +0.0000000000e+00 +0.0000000000e+00 +2.8252574591e+02 2.8252574591e+02 0.0000000000e+00 0.0000e+00 1.0000e+00
       21 -1    0    0  504  503 -0.0000000000e+00 -0.0000000000e+00 -3.2976419613e+02 3.2976419613e+02 0.0000000000e+00 0.0000e+00 1.0000e+00
        6  1    1    2  501    0 +1.0438985193e+02 +9.5067799347e+01 +1.3991112634e+01 2.2374065096e+02 1.7300000000e+02 0.0000e+00 1.0000e+00
       -6  1    1    2    0  503 -9.4757387409e+01 +4.6257494261e+00 -1.1725209743e+02 2.2951560813e+02 1.7300000000e+02 0.0000e+00 1.0000e+00
       21  1    1    2  504  505 +2.9905926148e+00 -2.0744886261e+01 -3.3179718151e+01 3.9245224509e+01 0.0000000000e+00 0.0000e+00 1.0000e+00
       21  1    1    2  505  502 -1.2623057135e+01 -7.8948662512e+01 +8.9202252730e+01 1.1978845844e+02 0.0000000000e+00 0.0000e+00 1.0000e+00
<mgrwt>
<rscale>  4 0.20129527E+03</rscale>
<asrwt>0</asrwt>
<pdfrwt beam="1">  1       21 0.43465500E-01 0.20129527E+03</pdfrwt>
<pdfrwt beam="2">  1       21 0.50732953E-01 0.20129527E+03</pdfrwt>
<totfact> 0.18707367E+04</totfact>
</mgrwt>
</event>
<event>
 6      1 +2.5168323e+02 1.75504100e+02 7.54677100e-03 1.03924000e-01
       21 -1    0    0  504  502 +0.0000000000e+00 +0.0000000000e+00 +1.5613773347e+03 1.5613773347e+03 0.0000000000e+00 0.0000e+00 -1.0000e+00
       21 -1    0    0  501  503 -0.0000000000e+00 -0.0000000000e+00 -6.6035116390e+01 6.6035116390e+01 0.0000000000e+00 0.0000e+00 -1.0000e+00
        6  1    1    2  501    0 +1.6497012923e+01 +2.6791874787e+01 +8.0171486774e+01 1.9325222711e+02 1.7300000000e+02 0.0000e+00 -1.0000e+00
       -6  1    1    2    0  505 -3.8689090350e+01 +7.7918512278e+00 +9.0547689407e+02 9.2269982354e+02 1.7300000000e+02 0.0000e+00 -1.0000e+00
       21  1    1    2  504  503 +1.4559617715e+01 -1.5157267623e+01 +2.1346458856e+02 2.1449675009e+02 0.0000000000e+00 0.0000e+00 1.0000e+00
       21  1    1    2  505  502 +7.6324597130e+00 -1.9426458391e+01 +2.9622924890e+02 2.9696365035e+02 0.0000000000e+00 0.0000e+00 -1.0000e+00
<mgrwt>
<rscale>  4 0.17550414E+03</rscale>
<asrwt>0</asrwt>
<pdfrwt beam="1">  1       21 0.24021187E+00 0.17550414E+03</pdfrwt>
<pdfrwt beam="2">  1       21 0.10159250E-01 0.17550414E+03</pdfrwt>
<totfact> 0.61012241E+03</totfact>
</mgrwt>
</event>
<event>
 6      1 +2.5168323e+02 2.51831200e+02 7.54677100e-03 1.11896800e-01
       21 -1    0    0  501  502 +0.0000000000e+00 +0.0000000000e+00 +4.6595367225e+02 4.6595367225e+02 0.0000000000e+00 0.0000e+00 -1.0000e+00
       21 -1    0    0  502  503 -0.0000000000e+00 -0.0000000000e+00 -2.6171128785e+02 2.6171128785e+02 0.0000000000e+00 0.0000e+00 -1.0000e+00
        6  1    1    2  501    0 -1.4149587792e+01 +1.2854796583e+02 +1.3916980261e+02 2.5694751275e+02 1.7300000000e+02 0.0000e+00 -1.0000e+00
       -6  1    1    2    0  505 +1.3181978858e+02 +6.8121532575e+01 +4.2944421113e+01 2.3192719368e+02 1.7300000000e+02 0.0000e+00 1.0000e+00
       21  1    1    2  504  503 -2.3380977613e+01 -1.8715129015e+01 +2.2400590424e+01 3.7399366565e+01 0.0000000000e+00 0.0000e+00 -1.0000e+00
       21  1    1    2  505  504 -9.4289223175e+01 -1.7795436939e+02 -2.7242974607e-01 2.0139088710e+02 0.0000000000e+00 0.0000e+00 -1.0000e+00
<mgrwt>
<rscale>  4 0.24235003E+03</rscale>
<asrwt>0</asrwt>
<pdfrwt beam="1">  1       21 0.71685180E-01 0.25183124E+03</pdfrwt>
<pdfrwt beam="2">  1       21 0.40263275E-01 0.25183124E+03</pdfrwt>
<totfact> 0.10072588E+04</totfact>
</mgrwt>
</event>
<event>
 6      1 +2.5168323e+02 2.47727300e+02 7.54677100e-03 1.16820100e-01
       21 -1    0    0  505  502 +0.0000000000e+00 +0.0000000000e+00 +1.1113406060e+02 1.1113406060e+02 0.0000000000e+00 0.0000e+00 -1.0000e+00
       21 -1    0    0  502  503 -0.0000000000e+00 -0.0000000000e+00 -8.1069994601e+02 8.1069994601e+02 0.0000000000e+00 0.0000e+00 1.0000e+00
        6  1    1    2  501    0 -5.3983238159e+01 -1.5656677550e+02 -1.8853468414e+02 3.0479775642e+02 1.7300000000e+02 0.0000e+00 -1.0000e+00
       -6  1    1    2    0  503 +4.1145337902e+01 +1.7944473887e+02 -4.6651799816e+02 5.3052935427e+02 1.7300000000e+02 0.0000e+00 1.0000e+00
       21  1    1    2  504  501 +4.0394788302e+01 -3.9976869854e+00 -2.1417737637e+01 4.5895968327e+01 0.0000000000e+00 0.0000e+00 -1.0000e+00
       21  1    1    2  505  504 -2.7556888045e+01 -1.8880276380e+01 -2.3095465469e+01 4.0610927595e+01 0.0000000000e+00 0.0000e+00 1.0000e+00
<mgrwt>
<rscale>  4 0.24772731E+03</rscale>
<asrwt>0</asrwt>
<pdfrwt beam="1">  1       21 0.17097548E-01 0.24772731E+03</pdfrwt>
<pdfrwt beam="2">  1       21 0.12472307E+00 0.24772731E+03</pdfrwt>
<totfact> 0.14309308E+04</totfact>
</mgrwt>
</event>
<event>
 6      1 +2.5168323e+02 2.21023100e+02 7.54677100e-03 1.12068800e-01
       21 -1    0    0  504  502 +0.0000000000e+00 +0.0000000000e+00 +1.6685537715e+03 1.6685537715e+03 0.0000000000e+00 0.0000e+00 -1.0000e+00
       21 -1    0    0  502  503 -0.0000000000e+00 -0.0000000000e+00 -1.3385007766e+02 1.3385007766e+02 0.0000000000e+00 0.0000e+00 -1.0000e+00
        6  1    1    2  501    0 -7.0465407107e+01 +1.0198449940e+02 +3.7402133782e+02 4.3033379238e+02 1.7300000000e+02 0.0000e+00 -1.0000e+00
       -6  1    1    2    0  505 +1.5991693101e+02 -4.0672386093e+00 +1.1684002383e+03 1.1919220126e+03 1.7300000000e+02 0.0000e+00 -1.0000e+00
       21  1    1    2  504  501 -1.1972148292e+02 -8.5738051720e+01 -8.6143168751e+00 1.4750746910e+02 0.0000000000e+00 0.0000e+00 -1.0000e+00
       21  1    1    2  505  503 +3.0269959017e+01 -1.2179209071e+01 +8.9643467168e-01 3.2640575173e+01 0.0000000000e+00 0.0000e+00 1.0000e+00
<mgrwt>
<rscale>  4 0.22102312E+03</rscale>
<asrwt>0</asrwt>
<pdfrwt beam="1">  1       21 0.25670057E+00 0.22102312E+03</pdfrwt>
<pdfrwt beam="2">  1       21 0.20592321E-01 0.22102312E+03</pdfrwt>
<totfact> 0.12849169E+03</totfact>
</mgrwt>
</event>
<event>
 6      1 +2.5168323e+02 2.39622200e+02 7.54677100e-03 1.06249800e-01
       21 -1    0    0  505  502 +0.0000000000e+00 +0.0000000000e+00 +5.4089581327e+02 5.4089581327e+02 0.0000000000e+00 0.0000e+00 1.0000e+00
       21 -1    0    0  501  503 -0.0000000000e+00 -0.0000000000e+00 -3.2895106925e+02 3.2895106925e+02 0.0000000000e+00 0.0000e+00 1.0000e+00
        6  1    1    2  501    0 +1.0076149617e+02 +1.1736968685e+02 +5.1811497469e+01 2.3778552053e+02 1.7300000000e+02 0.0000e+00 1.0000e+00
       -6  1    1    2    0  502 -1.5289579428e+02 -8.3117453829e+01 -1.6761874912e+02 2.9717112931e+02 1.7300000000e+02 0.0000e+00 1.0000e+00
       21  1    1    2  504  503 +3.1039899073e+01 -2.2076135766e+01 +1.2483474947e+02 1.3051645789e+02 0.0000000000e+00 0.0000e+00 -1.0000e+00
       21  1    1    2  505  504 +2.1094399035e+01 -1.2176097253e+01 +2.0291724620e+02 2.0437377479e+02 0.0000000000e+00 0.0000e+00 -1.0000e+00
<mgrwt>
<rscale>  4 0.23962217E+03</rscale>
<asrwt>0</asrwt>
<pdfrwt beam="1">  1       21 0.83214741E-01 0.23962217E+03</pdfrwt>
<pdfrwt beam="2">  1       21 0.50607857E-01 0.23962217E+03</pdfrwt>
<totfact> 0.45147071E+03</totfact>
</mgrwt>
</event>
<event>
 6      1 +2.5168323e+02 2.39280700e+02 7.54677100e-03 1.16820100e-01
       21 -1    0    0  504  502 +0.0000000000e+00 +0.0000000000e+00 +4.0767992547e+02 4.0767992547e+02 0.0000000000e+00 0.0000e+00 1.0000e+00
       21 -1    0    0  501  503 -0.0000000000e+00 -0.0000000000e+00 -2.6107768646e+02 2.6107768646e+02 0.0000000000e+00 0.0000e+00 -1.0000e+00
        6  1    1    2  501    0 -1.4651180931e+02 +2.1812167180e+01 -4.1455539279e+01 2.3149307256e+02 1.7300000000e+02 0.0000e+00 1.0000e+00
       -6  1    1    2    0  505 +1.6044037036e+02 +2.4867641781e+01 +1.4706786448e+02 2.7913700724e+02 1.7300000000e+02 0.0000e+00 -1.0000e+00
       21  1    1    2  504  503 -4.6680047481e+01 -5.8486726897e+01 -2.8763173768e+01 8.0168848197e+01 0.0000000000e+00 0.0000e+00 1.0000e+00
       21  1    1    2  505  502 +3.2751486435e+01 +1.1806917936e+01 +6.9753087567e+01 7.7958683929e+01 0.0000000000e+00 0.0000e+00 1.0000e+00
<mgrwt>
<rscale>  4 0.23928066E+03</rscale>
<asrwt>0</asrwt>
<pdfrwt beam="1">  1       21 0.62719988E-01 0.23928066E+03</pdfrwt>
<pdfrwt beam="2">  1       21 0.40165798E-01 0.23928066E+03</pdfrwt>
<totfact> 0.13677699E+04</totfact>
</mgrwt>
</event>
<event>
 6      1 +2.5168323e+02 1.84399000e+02 7.54677100e-03 1.11910500e-01
       21 -1    0    0  501  502 +0.0000000000e+00 +0.0000000000e+00 +2.3800413221e+02 2.3800413221e+02 0.0000000000e+00 0.0000e+00 1.0000e+00
       21 -1    0    0  504  503 -0.0000000000e+00 -0.0000000000e+00 -1.2349787094e+03 1.2349787094e+03 0.0000000000e+00 0.0000e+00 1.0000e+00
        6  1    1    2  501    0 -6.1722644746e+01 -1.2077923453e+01 +1.4487352281e+02 2.3424965042e+02 1.7300000000e+02 0.0000e+00 1.0000e+00
       -6  1    1    2    0  503 +3.9635116256e+01 +1.4751469899e+02 -6.0986994110e+02 6.5207505237e+02 1.7300000000e+02 0.0000e+00 1.0000e+00
       21  1    1    2  504  505 +2.9318989142e+01 +3.3846080257e+01 -2.7648187083e+02 2.8008460359e+02 0.0000000000e+00 0.0000e+00 1.0000e+00
       21  1    1    2  505  502 -7.2314606513e+00 -1.6928285579e+02 -2.5549628804e+02 3.0657353521e+02 0.0000000000e+00 0.0000e+00 1.0000e+00
<mgrwt>
<rscale>  4 0.18439898E+03</rscale>
<asrwt>0</asrwt>
<pdfrwt beam="1">  1       21 0.36616020E-01 0.18439898E+03</pdfrwt>
<pdfrwt beam="2">  1       21 0.18999673E+00 0.18439898E+03</pdfrwt>
<totfact> 0.11323789E+03</totfact>
</mgrwt>
</event>
<event>
 6      1 +2.5168323e+02 2.58983200e+02 7.54677100e-03 1.07064900e-01
       21 -1    0    0  505  502 +0.0000000000e+00 +0.0000000000e+00 +3.5653458040e+02 3.5653458040e+02 0.0000000000e+00 0.0000e+00 -1.0000e+00
       21 -1    0    0  504  503 -0.0000000000e+00 -0.0000000000e+00 -4.8526592876e+02 4.8526592876e+02 0.0000000000e+00 0.0000e+00 -1.0000e+00
        6  1    1    2  501    0 +1.9052887122e+02 -4.0017537398e+01 -3.2040312901e+02 4.1290412827e+02 1.7300000000e+02 0.0000e+00 -1.0000e+00
       -6  1    1    2    0  503 -1.7465724335e+02 +6.4849890267e+01 +1.0601191595e+02 2.7545995579e+02 1.7300000000e+02 0.0000e+00 -1.0000e+00
       21  1    1    2  504  502 -4.6163879347e+01 -1.1908246395e+00 -1.2652682099e+01 4.7881229976e+01 0.0000000000e+00 0.0000e+00 -1.0000e+00
       21  1    1    2  505  501 +3.0292251483e+01 -2.3641528230e+01 +9.8312546806e+01 1.0555519512e+02 0.0000000000e+00 0.0000e+00 -1.0000e+00
<mgrwt>
<rscale>  4 0.25898316E+03</rscale>
<asrwt>0</asrwt>
<pdfrwt beam="1">  1       21 0.54851474E-01 0.25898316E+03</pdfrwt>
<pdfrwt beam="2">  1       21 0.74656297E-01 0.25898316E+03</pdfrwt>
<totfact> 0.48125447E+03</totfact>
</mgrwt>
</event>
<event>
 6      1 +2.5168323e+02 2.46991700e+02 7.54677100e-03 1.16820100e-01
       21 -1    0    0  505  502 +0.0000000000e+00 +0.0000000000e+00 +9.7470836316e+01 9.7470836316e+01 0.0000000000e+00 0.0000e+00 1.0000e+00
       21 -1    0    0  504  503 -0.0000000000e+00 -0.0000000000e+00 -1.5057080977e+03 1.5057080977e+03 0.0000000000e+00 0.0000e+00 1.0000e+00
        6  1    1    2  501    0 +2.0472183226e+02 +7.3833240075e+00 -2.1752267639e+02 3.4526896302e+02 1.7300000000e+02 0.0000e+00 1.0000e+00
       -6  1    1    2    0  503 -1.5037150136e+02 -8.3279081471e+00 -1.1281570440e+03 1.1512377071e+03 1.7300000000e+02 0.0000e+00 1.0000e+00
       21  1    1    2  504  502 -2.5082824662e+01 -3.5058756656e+00 -7.1413932063e+01 7.5771953584e+01 0.0000000000e+00 0.0000e+00 1.0000e+00
       21  1    1    2  505  501 -2.9267506242e+01 +4.4504598053e+00 +8.8563910276e+00 3.0900310292e+01 0.0000000000e+00 0.0000e+00 -1.0000e+00
<mgrwt>
<rscale>  4 0.24699167E+03</rscale>
<asrwt>0</asrwt>
<pdfrwt beam="1">  1       21 0.14995514E-01 0.24699167E+03</pdfrwt>
<pdfrwt beam="2">  1       21 0.23164739E+00 0.24699167E+03</pdfrwt>
<totfact> 0.31880528E+03</totfact>
</mgrwt>
</event>
<event>
 6      1 +2.5168323e+02 2.10564600e+02 7.54677100e-03 1.11910500e-01
       21 -1    0    0  501  502 +0.0000000000e+00 +0.0000000000e+00 +1.0964935323e+02 1.0964935323e+02 0.0000000000e+00 0.0000e+00 1.0000e+00
       21 -1    0    0  504  503 -0.0000000000e+00 -0.0000000000e+00 -1.3585446997e+03 1.3585446997e+03 0.0000000000e+00 0.0000e+00 -1.0000e+00
        6  1    1    2  501    0 +1.1579233661e+02 +1.9771933564e+01 -3.6124315646e+01 2.1220923815e+02 1.7300000000e+02 0.0000e+00 1.0000e+00
       -6  1    1    2    0  503 -1.4351312584e+02 +5.4606657113e+01 -7.4621818992e+02 7.8124803441e+02 1.7300000000e+02 0.0000e+00 -1.0000e+00
       21  1    1    2  504  505 +2.4469875304e+01 -3.1945966789e+01 -1.4874191978e+02 1.5408918941e+02 0.0000000000e+00 0.0000e+00 -1.0000e+00
       21  1    1    2  505  502 +3.2509139335e+00 -4.2432623887e+01 -3.1781092116e+02 3.2064759101e+02 0.0000000000e+00 0.0000e+00 -1.0000e+00
<mgrwt>
<rscale>  4 0.21056461E+03</rscale>
<asrwt>0</asrwt>
<pdfrwt beam="1">  1       21 0.16869131E-01 0.21056461E+03</pdfrwt>
<pdfrwt beam="2">  1       21 0.20900689E+00 0.21056461E+03</pdfrwt>
<totfact> 0.36616346E+03</totfact>
</mgrwt>
</event>
<event>
 6      1 +2.5168323e+02 2.50470800e+02 7.54677100e-03 1.06249800e-01
       21 -1    0    0  504  502 +0.0000000000e+00 +0.0000000000e+00 +1.1040821593e+03 1.1040821593e+03 0.0000000000e+00 0.0000e+00 -1.0000e+00
       21 -1    0    0  501  503 -0.0000000000e+00 -0.0000000000e+00 -1.0346377736e+03 1.0346377736e+03 0.0000000000e+00 0.0000e+00 1.0000e+00
        6  1    1    2  501    0 +2.5336460015e+01 -1.5585766298e+01 -8.1806882162e+02 8.3669017516e+02 1.7300000000e+02 0.0000e+00 1.0000e+00
       -6  1    1    2    0  505 -7.8253450451e+01 +1.8785840807e+02 -1.0913865045e+02 2.8853878251e+02 1.7300000000e+02 0.0000e+00 1.0000e+00
       21  1    1    2  504  503 +6.3634925820e+00 -3.1945816320e+01 +2.6946081618e+02 2.7142247636e+02 0.0000000000e+00 0.0000e+00 -1.0000e+00
       21  1    1    2  505  502 +4.6553497855e+01 -1.4032682545e+02 +7.2719104161e+02 7.4206849893e+02 0.0000000000e+00 0.0000e+00 -1.0000e+00
<mgrwt>
<rscale>  4 0.22917173E+03</rscale>
<asrwt>0</asrwt>
<pdfrwt beam="1">  1       21 0.16985879E+00 0.25047078E+03</pdfrwt>
<pdfrwt beam="2">  1       21 0.15917504E+00 0.25047078E+03</pdfrwt>
<totfact> 0.50477637E+01</totfact>
</mgrwt>
</event>
<event>
 6      1 +2.5168323e+02 3.03954300e+02 7.54677100e-03 1.05831300e-01
       21 -1    0    0  504  502 +0.0000000000e+00 +0.0000000000e+00 +1.1820306006e+03 1.1820306006e+03 0.0000000000e+00 0.0000e+00 -1.0000e+00
       21 -1    0    0  501  503 -0.0000000000e+00 -0.0000000000e+00 -3.2527205363e+02 3.2527205363e+02 0.0000000000e+00 0.0000e+00 -1.0000e+00
        6  1    1    2  501    0 +1.7457560130e+02 -3.6351822471e+01 +2.5018710750e+02 3.5259138436e+02 1.7300000000e+02 0.0000e+00 -1.0000e+00
       -6  1    1    2    0  505 -2.6219693399e+02 +3.8723841324e+01 -7.6646443426e+01 3.2565387357e+02 1.7300000000e+02 0.0000e+00 -1.0000e+00
       21  1    1    2  504  503 -2.6945656190e+01 +1.4917390399e+01 -6.4996798302e+01 7.1924826822e+01 0.0000000000e+00 0.0000e+00 -1.0000e+00
       21  1    1    2  505  502 +1.1456698889e+02 -1.7289409251e+01 +7.4821468121e+02 7.5713256950e+02 0.0000000000e+00 0.0000e+00 -1.0000e+00
<mgrwt>
<rscale>  4 0.30395426E+03</rscale>
<asrwt>0</asrwt>
<pdfrwt beam="1">  1       21 0.18185086E+00 0.30395426E+03</pdfrwt>
<pdfrwt beam="2">  1       21 0.50041855E-01 0.30395426E+03</pdfrwt>
<totfact> 0.60710497E+02</totfact>
</mgrwt>
</event>
<event>
 6      1 +2.5168323e+02 2.40404100e+02 7.54677100e-03 1.04003000e-01
       21 -1    0    0  504  502 +0.0000000000e+00 +0.0000000000e+00 +2.4708162412e+02 2.4708162412e+02 0.0000000000e+00 0.0000e+00 1.0000e+00
       21 -1    0    0  502  503 -0.0000000000e+00 -0.0000000000e+00 -3.1433538331e+02 3.1433538331e+02 0.0000000000e+00 0.0000e+00 -1.0000e+00
        6  1    1    2  501    0 +1.4130401126e+02 -4.2269777723e+01 +2.4704805484e+01 2.2867637640e+02 1.7300000000e+02 0.0000e+00 -1.0000e+00
       -6  1    1    2    0  505 -1.6527770342e+02 +9.1931304744e+01 -6.6825657842e+01 2.6488252601e+02 1.7300000000e+02 0.0000e+00 -1.0000e+00
       21  1    1    2  504  501 +9.4263615632e+00 -2.8384726443e+01 -2.9159295689e+01 4.1770964947e+01 0.0000000000e+00 0.0000e+00 -1.0000e+00
       21  1    1    2  505  503 +1.4547330595e+01 -2.1276800578e+01 +4.0263888520e+00 2.6087140078e+01 0.0000000000e+00 0.0000e+00 -1.0000e+00
<mgrwt>
<rscale>  4 0.24040406E+03</rscale>
<asrwt>0</asrwt>
<pdfrwt beam="1">  1       21 0.38012558E-01 0.24040406E+03</pdfrwt>
<pdfrwt beam="2">  1       21 0.48359290E-01 0.24040406E+03</pdfrwt>
<totfact> 0.26584938E+04</totfact>
</mgrwt>
</event>
<event>
 6      1 +2.5168323e+02 2.16035300e+02 7.54677100e-03 1.12989000e-01
       21 -1    0    0  501  502 +0.0000000000e+00 +0.0000000000e+00 +2.5226352229e+02 2.5226352229e+02 0.0000000000e+00 0.0000e+00 1.0000e+00
       21 -1    0    0  502  503 -0.0000000000e+00 -0.0000000000e+00 -3.8470734115e+02 3.8470734115e+02 0.0000000000e+00 0.0000e+00 1.0000e+00
        6  1    1    2  501    0 +6.0156048193e+01 +1.3471206826e+02 -3.1798204362e+01 2.2957834669e+02 1.7300000000e+02 0.0000e+00 1.0000e+00
       -6  1    1    2    0  504 +5.7911598749e+01 -1.2508109562e+02 +3.5630100618e+01 2.2404807034e+02 1.7300000000e+02 0.0000e+00 1.0000e+00
       21  1    1    2  504  505 -2.1617503805e+01 -1.4514528615e+01 -3.0942469413e+01 4.0440381119e+01 0.0000000000e+00 0.0000e+00 -1.0000e+00
       21  1    1    2  505  503 -9.6450143137e+01 +4.8835559771e+00 -1.0533324570e+02 1.4290406530e+02 0.0000000000e+00 0.0000e+00 1.0000e+00
<mgrwt>
<rscale>  4 0.21603534E+03</rscale>
<asrwt>0</asrwt>
<pdfrwt beam="1">  1       21 0.38809773E-01 0.21603534E+03</pdfrwt>
<pdfrwt beam="2">  1       21 0.59185745E-01 0.21603534E+03</pdfrwt>
<totfact> 0.16839945E+04</totfact>
</mgrwt>
</event>
<event>
 6      1 +2.5168323e+02 2.88843900e+02 7.54677100e-03 1.16820100e-01
       21 -1    0    0  505  502 +0.0000000000e+00 +0.0000000000e+00 +4.2441022900e+02 4.2441022900e+02 0.0000000000e+00 0.0000e+00 -1.0000e+00
       21 -1    0    0  501  503 -0.0000000000e+00 -0.0000000000e+00 -4.4058828841e+02 4.4058828841e+02 0.0000000000e+00 0.0000e+00 -1.0000e+00
        6  1    1    2  501    0 -2.2273347851e+01 +2.1168813194e+02 -2.0298843548e+02 3.4123492226e+02 1.7300000000e+02 0.0000e+00 -1.0000e+00
       -6  1    1    2    0  502 -1.3877909267e+01 -2.5462399013e+02 +1.9338858338e+02 3.6380505343e+02 1.7300000000e+02 0.0000e+00 -1.0000e+00
       21  1    1    2  504  503 -2.6090217286e+01 +1.6303923086e+01 -6.4113354508e+01 7.1112865027e+01 0.0000000000e+00 0.0000e+00 -1.0000e+00
       21  1    1    2  505  504 +6.2241474404e+01 +2.6631935111e+01 +5.7535147204e+01 8.8845676695e+01 0.0000000000e+00 0.0000e+00 -1.0000e+00
<mgrwt>
<rscale>  4 0.28884388E+03</rscale>
<asrwt>0</asrwt>
<pdfrwt beam="1">  1       21 0.65293882E-01 0.28884388E+03</pdfrwt>
<pdfrwt beam="2">  1       21 0.67782813E-01 0.28884388E+03</pdfrwt>
<totfact> 0.40241725E+03</totfact>
</mgrwt>
</event>
<event>
 6      1 +2.5168323e+02 3.04378100e+02 7.54677100e-03 1.16820100e-01
       21 -1    0    0  505  502 +0.0000000000e+00 +0.0000000000e+00 +6.5555730081e+02 6.5555730081e+02 0.0000000000e+00 0.0000e+00 -1.0000e+00
       21 -1    0    0  501  503 -0.0000000000e+00 -0.0000000000e+00 -3.4871159319e+02 3.4871159319e+02 0.0000000000e+00 0.0000e+00 1.0000e+00
        6  1    1    2  501    0 +1.8138219606e+02 -2.6615793055e+01 -1.6396305968e+02 3.0070049289e+02 1.7300000000e+02 0.0000e+00 -1.0000e+00
       -6  1    1    2    0  502 -2.8534665491e+02 +4.6494811621e+01 +4.5533836051e+02 5.6643314127e+02 1.7300000000e+02 0.0000e+00 -1.0000e+00
       21  1    1    2  504  503 +7.5541728044e+01 -1.3294695529e+01 -3.0618503436e+01 8.2588100582e+01 0.0000000000e+00 0.0000e+00 1.0000e+00
       21  1    1    2  505  504 +2.8422730809e+01 -6.5843230376e+00 +4.6088910239e+01 5.4547159261e+01 0.0000000000e+00 0.0000e+00 -1.0000e+00
<mgrwt>
<rscale>  4 0.30437815E+03</rscale>
<asrwt>0</asrwt>
<pdfrwt beam="1">  1       21 0.10085497E+00 0.30437815E+03</pdfrwt>
<pdfrwt beam="2">  1       21 0.53647937E-01 0.30437815E+03</pdfrwt>
<totfact> 0.24434511E+03</totfact>
</mgrwt>
</event>
<event>
 6      1 +2.5168323e+02 1.93372700e+02 7.54677100e-03 1.12989000e-01
       21 -1    0    0  503  502 +0.0000000000e+00 +0.0000000000e+00 +6.9460627939e+02 6.9460627939e+02 0.0000000000e+00 0.0000e+00 -1.0000e+00
       21 -1    0    0  505  503 -0.0000000000e+00 -0.0000000000e+00 -1.6549821558e+02 1.6549821558e+02 0.0000000000e+00 0.0000e+00 -1.0000e+00
        6  1    1    2  501    0 +4.3714142369e+01 -7.5520670698e+01 +4.2595091864e+02 4.6795029975e+02 1.7300000000e+02 0.0000e+00 -1.0000e+00
       -6  1    1    2    0  502 -9.1877642684e+01 +3.6110907723e+01 +1.9404085639e+02 2.7807616372e+02 1.7300000000e+02 0.0000e+00 1.0000e+00
       21  1    1    2  504  501 +1.3576972879e+01 +2.8368781546e+01 -3.1760679704e+01 4.4697457805e+01 0.0000000000e+00 0.0000e+00 -1.0000e+00
       21  1    1    2  505  504 +3.4586527437e+01 +1.1040981430e+01 -5.9123031514e+01 6.9380573696e+01 0.0000000000e+00 0.0000e+00 -1.0000e+00
<mgrwt>
<rscale>  4 0.19337265E+03</rscale>
<asrwt>0</asrwt>
<pdfrwt beam="1">  1       21 0.10686250E+00 0.19337265E+03</pdfrwt>
<pdfrwt beam="2">  1       21 0.25461264E-01 0.19337265E+03</pdfrwt>
<totfact> 0.10239445E+04</totfact>
</mgrwt>
</event>
<event>
 6      1 +2.5168323e+02 2.05093700e+02 7.54677100e-03 1.07064900e-01
       21 -1    0    0  505  502 +0.0000000000e+00 +0.0000000000e+00 +1.3548043815e+02 1.3548043815e+02 0.0000000000e+00 0.0000e+00 -1.0000e+00
       21 -1    0    0  501  503 -0.0000000000e+00 -0.0000000000e+00 -7.2470563182e+02 7.2470563182e+02 0.0000000000e+00 0.0000e+00 -1.0000e+00
        6  1    1    2  501    0 -5.7088574431e+01 -1.2981893002e+02 -4.8190931136e+02 5.3129807481e+02 1.7300000000e+02 0.0000e+00 -1.0000e+00
       -6  1    1    2    0  502 +2.6099919000e+00 +2.3914866878e+01 -4.4227176793e+01 1.8017706869e+02 1.7300000000e+02 0.0000e+00 -1.0000e+00
       21  1    1    2  504  503 +9.8924521559e-01 +4.1868566705e+01 +3.4064589231e+00 4.2018560737e+01 0.0000000000e+00 0.0000e+00 1.0000e+00
       21  1    1    2  505  504 +5.3489337315e+01 +6.4035496439e+01 -6.6495164441e+01 1.0669236573e+02 0.0000000000e+00 0.0000e+00 -1.0000e+00
<mgrwt>
<rscale>  4 0.20509368E+03</rscale>
<asrwt>0</asrwt>
<pdfrwt beam="1">  1       21 0.20843145E-01 0.20509368E+03</pdfrwt>
<pdfrwt beam="2">  1       21 0.11149317E+00 0.20509368E+03</pdfrwt>
<totfact> 0.13392813E+04</totfact>
</mgrwt>
</event>
<event>
 6      1 +2.5168323e+02 1.74906500e+02 7.54677100e-03 1.05831300e-01
       21 -1    0    0  504  502 +0.0000000000e+00 +0.0000000000e+00 +9.1406791691e+02 9.1406791691e+02 0.0000000000e+00 0.0000e+00 -1.0000e+00
       21 -1    0    0  501  503 -0.0000000000e+00 -0.0000000000e+00 -5.7540792764e+02 5.7540792764e+02 0.0000000000e+00 0.0000e+00 -1.0000e+00
        6  1    1    2  501    0 -1.2400153140e+01 -2.5275709639e+01 -5.3098120865e+02 5.5916247124e+02 1.7300000000e+02 0.0000e+00 -1.0000e+00
       -6  1    1    2    0  505 +1.1528391542e+01 -4.0655912183e+01 +3.0825549448e+02 3.5600036079e+02 1.7300000000e+02 0.0000e+00 -1.0000e+00
       21  1    1    2  504  503 +1.1324669795e+01 +2.0664459820e+01 +1.9913812361e+01 3.0851709327e+01 0.0000000000e+00 0.0000e+00 -1.0000e+00
       21  1    1    2  505  502 -1.0452908198e+01 +4.5267162003e+01 +5.4147189108e+02 5.4346130320e+02 0.0000000000e+00 0.0000e+00 -1.0000e+00
<mgrwt>
<rscale>  4 0.17490655E+03</rscale>
<asrwt>0</asrwt>
<pdfrwt beam="1">  1       21 0.14062583E+00 0.17490655E+03</pdfrwt>
<pdfrwt beam="2">  1       21 0.88524296E-01 0.17490655E+03</pdfrwt>
<totfact> 0.39455515E+02</totfact>
</mgrwt>
</event>
<event>
 6      1 +2.5168323e+02 3.20584700e+02 7.54677100e-03 1.17132900e-01
       21 -1    0    0  503  502 +0.0000000000e+00 +0.0000000000e+00 +3.2026065880e+02 3.2026065880e+02 0.0000000000e+00 0.0000e+00 1.0000e+00
       21 -1    0    0  504  503 -0.0000000000e+00 -0.0000000000e+00 -4.5345365710e+02 4.5345365710e+02 0.0000000000e+00 0.0000e+00 -1.0000e+00
        6  1    1    2  501    0 -1.3579002443e+02 -2.0261712773e+02 -4.5819256825e+01 3.0252443783e+02 1.7300000000e+02 0.0000e+00 1.0000e+00
       -6  1    1    2    0  505 +1.5605478467e+02 +2.5381605920e+02 -5.0898343842e+01 3.4827478969e+02 1.7300000000e+02 0.0000e+00 -1.0000e+00
       21  1    1    2  504  501 -1.9566464346e+01 -2.6117490245e+01 -7.2215513671e+01 7.9246768000e+01 0.0000000000e+00 0.0000e+00 -1.0000e+00
       21  1    1    2  505  502 -6.9829589452e-01 -2.5081441220e+01 +3.5740116036e+01 4.3668320384e+01 0.0000000000e+00 0.0000e+00 1.0000e+00
<mgrwt>
<rscale>  4 0.32058468E+03</rscale>
<asrwt>0</asrwt>
<pdfrwt beam="1">  1       21 0.49270871E-01 0.32058468E+03</pdfrwt>
<pdfrwt beam="2">  1       21 0.69762101E-01 0.32058468E+03</pdfrwt>
<totfact> 0.68107336E+03</totfact>
</mgrwt>
</event>
<event>
 6      1 +2.5168323e+02 1.85225300e+02 7.54677100e-03 1.12989000e-01
       21 -1    0    0  501  502 +0.0000000000e+00 +0.0000000000e+00 +1.5799257517e+03 1.5799257517e+03 0.0000000000e+00 0.0000e+00 -1.0000e+00
       21 -1    0    0  502  503 -0.0000000000e+00 -0.0000000000e+00 -1.6010160652e+02 1.6010160652e+02 0.0000000000e+00 0.0000e+00 -1.0000e+00
        6  1    1    2  501    0 +2.4488183292e+01 -4.9646193694e+01 +1.1258523490e+03 1.1404108590e+03 1.7300000000e+02 0.0000e+00 -1.0000e+00
       -6  1    1    2    0  504 +3.5388740108e+01 +1.8163224836e+02 +2.0007592477e+02 3.2280336467e+02 1.7300000000e+02 0.0000e+00 -1.0000e+00
       21  1    1    2  504  505 -1.0742264888e+02 -1.1554256084e+02 +1.3823151263e+02 2.0975619166e+02 0.0000000000e+00 0.0000e+00 -1.0000e+00
       21  1    1    2  505  503 +4.7545725481e+01 -1.6443493822e+01 -4.4335641223e+01 6.7056942841e+01 0.0000000000e+00 0.0000e+00 -1.0000e+00
<mgrwt>
<rscale>  4 0.18522526E+03</rscale>
<asrwt>0</asrwt>
<pdfrwt beam="1">  1       21 0.24306549E+00 0.18522526E+03</pdfrwt>
<pdfrwt beam="2">  1       21 0.24631018E-01 0.18522526E+03</pdfrwt>
<totfact> 0.11489521E+03</totfact>
</mgrwt>
</event>
<event>
 6      1 +2.5168323e+02 1.82842800e+02 7.54677100e-03 1.03924000e-01
       21 -1    0    0  504  502 +0.0000000000e+00 +0.0000000000e+00 +1.3027928763e+03 1.3027928763e+03 0.0000000000e+00 0.0000e+00 1.0000e+00
       21 -1    0    0  501  503 -0.0000000000e+00 -0.0000000000e+00 -3.1267696552e+02 3.1267696552e+02 0.0000000000e+00 0.0000e+00 1.0000e+00
        6  1    1    2  501    0 -4.4508944093e+01 +1.6951993827e+01 +3.3992488593e+00 1.7946857968e+02 1.7300000000e+02 0.0000e+00 -1.0000e+00
       -6  1    1    2    0  505 +6.5355854631e+01 +1.1273035027e+01 -1.8057609007e+02 2.5871836688e+02 1.7300000000e+02 0.0000e+00 1.0000e+00
       21  1    1    2  504  503 -2.2268207065e+00 -7.6165753174e+01 +9.8298985467e+02 9.8593875827e+02 0.0000000000e+00 0.0000e+00 1.0000e+00
       21  1    1    2  505  502 -1.8620089831e+01 +4.7940724321e+01 +1.8430289729e+02 1.9134413695e+02 0.0000000000e+00 0.0000e+00 1.0000e+00
<mgrwt>
<rscale>  4 0.18284285E+03</rscale>
<asrwt>0</asrwt>
<pdfrwt beam="1">  1       21 0.20042967E+00 0.18284285E+03</pdfrwt>
<pdfrwt beam="2">  1       21 0.48104149E-01 0.18284285E+03</pdfrwt>
<totfact> 0.55766599E+02</totfact>
</mgrwt>
</event>
<event>
 6      1 +2.5168323e+02 2.06447700e+02 7.54677100e-03 1.16820100e-01
       21 -1    0    0  505  502 +0.0000000000e+00 +0.0000000000e+00 +3.1257991069e+02 3.1257991069e+02 0.0000000000e+00 0.0000e+00 1.0000e+00
       21 -1    0    0  501  503 -0.0000000000e+00 -0.0000000000e+00 -1.7593694831e+03 1.7593694831e+03 0.0000000000e+00 0.0000e+00 -1.0000e+00
        6  1    1    2  501    0 -1.8272277864e+02 +4.4549349034e+00 +1.0200501789e+02 2.7155383252e+02 1.7300000000e+02 0.0000e+00 1.0000e+00
       -6  1    1    2    0  502 +4.0824405982e+01 -4.5877410932e+00 -3.2798344684e+01 1.8081042809e+02 1.7300000000e+02 0.0000e+00 1.0000e+00
       21  1    1    2  504  503 +1.0060631295e+02 +1.3159599669e+00 -1.5576645875e+03 1.5609107371e+03 0.0000000000e+00 0.0000e+00 -1.0000e+00
       21  1    1    2  505  504 +4.1292059708e+01 -1.1831537770e+00 +4.1668341867e+01 5.8674396134e+01 0.0000000000e+00 0.0000e+00 1.0000e+00
<mgrwt>
<rscale>  4 0.20644773E+03</rscale>
<asrwt>0</asrwt>
<pdfrwt beam="1">  1       21 0.48089217E-01 0.20644773E+03</pdfrwt>
<pdfrwt beam="2">  1       21 0.27067223E+00 0.20644773E+03</pdfrwt>
<totfact> 0.20407612E+02</totfact>
</mgrwt>
</event>
<event>
 6      1 +2.5168323e+02 1.90156800e+02 7.54677100e-03 1.12989000e-01
       21 -1    0    0  501  502 +0.0000000000e+00 +0.0000000000e+00 +6.2805638884e+01 6.2805638884e+01 0.0000000000e+00 0.0000e+00 -1.0000e+00
       21 -1    0    0  502  503 -0.0000000000e+00 -0.0000000000e+00 -1.2268121559e+03 1.2268121559e+03 0.0000000000e+00 0.0000e+00 -1.0000e+00
        6  1    1    2  501    0 -5.1433584184e+01 -1.0715865312e+02 -3.7038206854e+02 4.2572322842e+02 1.7300000000e+02 0.0000e+00 -1.0000e+00
       -6  1    1    2    0  504 +1.8821897768e+01 +5.0720929222e+01 -2.1589231380e+02 2.8189602277e+02 1.7300000000e+02 0.0000e+00 -1.0000e+00
       21  1    1    2  504  505 +2.3696116443e+01 +1.8230443061e+01 -3.0445398346e+02 3.0591842545e+02 0.0000000000e+00 0.0000e+00 -1.0000e+00
       21  1    1    2  505  503 +8.9155699723e+00 +3.8207280842e+01 -2.7327815127e+02 2.7608011819e+02 0.0000000000e+00 0.0000e+00 -1.0000e+00
<mgrwt>
<rscale>  4 0.19015681E+03</rscale>
<asrwt>0</asrwt>
<pdfrwt beam="1">  1       21 0.96624072E-02 0.19015681E+03</pdfrwt>
<pdfrwt beam="2">  1       21 0.18874031E+00 0.19015681E+03</pdfrwt>
<totfact> 0.13733759E+04</totfact>
</mgrwt>
</event>
<event>
 6      1 +2.5168323e+02 1.73145600e+02 7.54677100e-03 1.07064900e-01
       21 -1    0    0  504  502 +0.0000000000e+00 +0.0000000000e+00 +5.0030268456e+02 5.0030268456e+02 0.0000000000e+00 0.0000e+00 1.0000e+00
       21 -1    0    0  501  503 -0.0000000000e+00 -0.0000000000e+00 -2.1110889908e+02 2.1110889908e+02 0.0000000000e+00 0.0000e+00 1.0000e+00
        6  1    1    2  501    0 +1.0156490501e+01 +1.0095934272e+01 -1.3158970951e+02 2.1783005724e+02 1.7300000000e+02 0.0000e+00 1.0000e+00
       -6  1    1    2    0  505 +1.8900263772e+01 +2.7878612329e+01 +2.0427648985e+02 2.6980052131e+02 1.7300000000e+02 0.0000e+00 1.0000e+00
       21  1    1    2  504  503 -9.3962092862e+00 -3.3612407516e+01 +1.1059182313e+02 1.1596824579e+02 0.0000000000e+00 0.0000e+00 1.0000e+00
       21  1    1    2  505  502 -1.9660544987e+01 -4.3621390859e+00 +1.0591518202e+02 1.0781275930e+02 0.0000000000e+00 0.0000e+00 -1.0000e+00
<mgrwt>
<rscale>  4 0.17314555E+03</rscale>
<asrwt>0</asrwt>
<pdfrwt beam="1">  1       21 0.76969643E-01 0.17314555E+03</pdfrwt>
<pdfrwt beam="2">  1       21 0.32478292E-01 0.17314555E+03</pdfrwt>
<totfact> 0.13864774E+04</totfact>
</mgrwt>
</event>
<event>
 6      1 +2.5168323e+02 2.90942700e+02 7.54677100e-03 1.16820100e-01
       21 -1    0    0  505  502 +0.0000000000e+00 +0.0000000000e+00 +5.2651837011e+02 5.2651837011e+02 0.0000000000e+00 0.0000e+00 1.0000e+00
       21 -1    0    0  504  503 -0.0000000000e+00 -0.0000000000e+00 -1.1647215653e+03 1.1647215653e+03 0.0000000000e+00 0.0000e+00 -1.0000e+00
        6  1    1    2  501    0 -2.8293338251e+02 +1.3925970317e+02 +1.5619412346e+02 3.9213539507e+02 1.7300000000e+02 0.0000e+00 1.0000e+00
       -6  1    1    2    0  503 +1.7951704389e+02 -8.7997622603e+01 -1.4104265159e+02 2.9965309977e+02 1.7300000000e+02 0.0000e+00 1.0000e+00
       21  1    1    2  504  502 -2.1632796789e-01 -3.4586260405e+01 -8.1008278771e+02 8.1082080582e+02 0.0000000000e+00 0.0000e+00 -1.0000e+00
       21  1    1    2  505  501 +1.0363266658e+02 -1.6675820157e+01 +1.5672812066e+02 1.8863063475e+02 0.0000000000e+00 0.0000e+00 1.0000e+00
<mgrwt>
<rscale>  4 0.29094271E+03</rscale>
<asrwt>0</asrwt>
<pdfrwt beam="1">  1       21 0.81002826E-01 0.29094271E+03</pdfrwt>
<pdfrwt beam="2">  1       21 0.17918793E+00 0.29094271E+03</pdfrwt>
<totfact> 0.22233987E+02</totfact>
</mgrwt>
</event>
<event>
 6      1 +2.5168323e+02 2.51328600e+02 7.54677100e-03 1.11910500e-01
       21 -1    0    0  501  502 +0.0000000000e+00 +0.0000000000e+00 +1.1350123101e+03 1.1350123101e+03 0.0000000000e+00 0.0000e+00 -1.0000e+00
       21 -1    0    0  505  503 -0.0000000000e+00 -0.0000000000e+00 -6.0598738722e+02 6.0598738722e+02 0.0000000000e+00 0.0000e+00 -1.0000e+00
        6  1    1    2  501    0 -3.6311616322e+02 -2.4061061559e+01 +1.1607458902e+02 4.1932635606e+02 1.7300000000e+02 0.0000e+00 -1.0000e+00
       -6  1    1    2    0  504 +1.6003942181e+02 +2.4241482195e+01 +8.0020424971e+02 8.3453945817e+02 1.7300000000e+02 0.0000e+00 -1.0000e+00
       21  1    1    2  504  503 +2.3822031973e+01 -5.8226820603e+01 -7.6942733149e+00 6.3380231040e+01 0.0000000000e+00 0.0000e+00 -1.0000e+00
       21  1    1    2  505  502 +1.7925470944e+02 +5.8046399967e+01 -3.7955964252e+02 4.2375365206e+02 0.0000000000e+00 0.0000e+00 -1.0000e+00
<mgrwt>
<rscale>  4 0.25132856E+03</rscale>
<asrwt>0</asrwt>
<pdfrwt beam="1">  1       21 0.17461728E+00 0.25132856E+03</pdfrwt>
<pdfrwt beam="2">  1       21 0.93228829E-01 0.25132856E+03</pdfrwt>
<totfact> 0.17915267E+02</totfact>
</mgrwt>
</event>
<event>
 6      1 +2.5168323e+02 1.90685300e+02 7.54677100e-03 1.16820100e-01
       21 -1    0    0  505  502 +0.0000000000e+00 +0.0000000000e+00 +5.2076541451e+01 5.2076541451e+01 0.0000000000e+00 0.0000e+00 -1.0000e+00
       21 -1    0    0  501  503 -0.0000000000e+00 -0.0000000000e+00 -2.4629806029e+03 2.4629806029e+03 0.0000000000e+00 0.0000e+00 -1.0000e+00
        6  1    1    2  501    0 +1.0257894989e+02 +9.1336080927e+01 -6.9008347142e+02 7.2457499140e+02 1.7300000000e+02 0.0000e+00 -1.0000e+00
       -6  1    1    2    0  502 +1.1602785985e+01 -4.6658623582e+01 -3.8072225002e+02 4.2093952470e+02 1.7300000000e+02 0.0000e+00 -1.0000e+00
       21  1    1    2  504  503 -9.0081142501e+01 -1.7149229439e+00 -1.3072118483e+03 1.3103130808e+03 0.0000000000e+00 0.0000e+00 -1.0000e+00
       21  1    1    2  505  504 -2.4100593377e+01 -4.2962534401e+01 -3.2886491734e+01 5.9229547541e+01 0.0000000000e+00 0.0000e+00 -1.0000e+00
<mgrwt>
<rscale>  4 0.19068527E+03</rscale>
<asrwt>0</asrwt>
<pdfrwt beam="1">  1       21 0.80117761E-02 0.19068527E+03</pdfrwt>
<pdfrwt beam="2">  1       21 0.37892007E+00 0.19068527E+03</pdfrwt>
<totfact> 0.14093165E+03</totfact>
</mgrwt>
</event>
<event>
 6      1 +2.5168323e+02 1.88309000e+02 7.54677100e-03 1.03924000e-01
       21 -1    0    0  504  502 +0.0000000000e+00 +0.0000000000e+00 +5.3787419359e+02 5.3787419359e+02 0.0000000000e+00 0.0000e+00 -1.0000e+00
       21 -1    0    0  501  503 -0.0000000000e+00 -0.0000000000e+00 -1.7001844092e+02 1.7001844092e+02 0.0000000000e+00 0.0000e+00 -1.0000e+00
        6  1    1    2  501    0 -2.4841882262e+01 +8.8986586740e+00 +8.1298026087e+01 1.9296288318e+02 1.7300000000e+02 0.0000e+00 -1.0000e+00
       -6  1    1    2    0  505 +9.0453988526e+01 -6.0366704714e+01 -1.0866418287e+01 2.0462927973e+02 1.7300000000e+02 0.0000e+00 -1.0000e+00
       21  1    1    2  504  503 -2.3008936720e+01 +1.8888614590e+00 +7.9085445703e+01 8.2386204480e+01 0.0000000000e+00 0.0000e+00 1.0000e+00
       21  1    1    2  505  502 -4.2603169545e+01 +4.9579184581e+01 +2.1833869917e+02 2.2791426711e+02 0.0000000000e+00 0.0000e+00 -1.0000e+00
<mgrwt>
<rscale>  4 0.18830898E+03</rscale>
<asrwt>0</asrwt>
<pdfrwt beam="1">  1       21 0.82749875E-01 0.18830898E+03</pdfrwt>
<pdfrwt beam="2">  1       21 0.26156683E-01 0.18830898E+03</pdfrwt>
<totfact> 0.17743172E+04</totfact>
</mgrwt>
</event>
<event>
 6      1 +2.5168323e+02 2.08968100e+02 7.54677100e-03 1.07064900e-01
       21 -1    0    0  504  502 +0.0000000000e+00 +0.0000000000e+00 +7.3440186314e+02 7.3440186314e+02 0.0000000000e+00 0.0000e+00 1.0000e+00
       21 -1    0    0  501  503 -0.0000000000e+00 -0.0000000000e+00 -9.5848010577e+02 9.5848010577e+02 0.0000000000e+00 0.0000e+00 -1.0000e+00
        6  1    1    2  501    0 +1.9390863444e+01 +1.0742763134e+02 -7.1193922285e+02 7.4074500241e+02 1.7300000000e+02 0.0000e+00 -1.0000e+00
       -6  1    1    2    0  505 -6.9597483250e+01 -1.3846477913e+02 -1.6909018037e+02 2.8729217503e+02 1.7300000000e+02 0.0000e+00 -1.0000e+00
       21  1    1    2  504  503 +4.1394244116e+01 +5.2945688277e+01 +5.9069956182e+02 5.9451047231e+02 0.0000000000e+00 0.0000e+00 1.0000e+00
       21  1    1    2  505  502 +8.8123756894e+00 -2.1908540487e+01 +6.6251598778e+01 7.0334319163e+01 0.0000000000e+00 0.0000e+00 1.0000e+00
<mgrwt>
<rscale>  4 0.20896812E+03</rscale>
<asrwt>0</asrwt>
<pdfrwt beam="1">  1       21 0.11298490E+00 0.20896812E+03</pdfrwt>
<pdfrwt beam="2">  1       21 0.14745848E+00 0.20896812E+03</pdfrwt>
<totfact> 0.18747126E+02</totfact>
</mgrwt>
</event>
<event>
 6      1 +2.5168323e+02 1.84648200e+02 7.54677100e-03 1.11910500e-01
       21 -1    0    0  501  502 +0.0000000000e+00 +0.0000000000e+00 +4.5534087637e+02 4.5534087637e+02 0.0000000000e+00 0.0000e+00 1.0000e+00
       21 -1    0    0  504  503 -0.0000000000e+00 -0.0000000000e+00 -1.0736521245e+03 1.0736521245e+03 0.0000000000e+00 0.0000e+00 -1.0000e+00
        6  1    1    2  501    0 +8.2079961558e+01 +5.5814127945e+01 -2.4779916610e+02 3.1809709789e+02 1.7300000000e+02 0.0000e+00 -1.0000e+00
       -6  1    1    2    0  503 +3.4096595289e+01 +6.8053588799e+01 +3.8700439587e+02 4.3069161959e+02 1.7300000000e+02 0.0000e+00 1.0000e+00
       21  1    1    2  504  505 -1.9971330135e+01 +9.4624339284e+00 -1.0408990734e+02 1.0641005823e+02 0.0000000000e+00 0.0000e+00 1.0000e+00
       21  1    1    2  505  502 -9.6205226712e+01 -1.3333015067e+02 -6.5342657055e+02 6.7379422513e+02 0.0000000000e+00 0.0000e+00 -1.0000e+00
<mgrwt>
<rscale>  4 0.18464820E+03</rscale>
<asrwt>0</asrwt>
<pdfrwt beam="1">  1       21 0.70052442E-01 0.18464820E+03</pdfrwt>
<pdfrwt beam="2">  1       21 0.16517725E+00 0.18464820E+03</pdfrwt>
<totfact> 0.43124501E+02</totfact>
</mgrwt>
</event>
<event>
 6      1 +2.5168323e+02 2.08325600e+02 7.54677100e-03 9.87464100e-02
       21 -1    0    0  503  502 +0.0000000000e+00 +0.0000000000e+00 +2.7641651731e+02 2.7641651731e+02 0.0000000000e+00 0.0000e+00 1.0000e+00
       21 -1    0    0  505  503 -0.0000000000e+00 -0.0000000000e+00 -3.0598786583e+02 3.0598786583e+02 0.0000000000e+00 0.0000e+00 1.0000e+00
        6  1    1    2  501    0 +6.2603635561e+01 +7.3624321887e+01 +5.6941146360e+01 2.0618207999e+02 1.7300000000e+02 0.0000e+00 1.0000e+00
       -6  1    1    2    0  504 -2.3527582434e+01 -1.6739140270e+02 -5.1700973412e+01 2.4733665212e+02 1.7300000000e+02 0.0000e+00 1.0000e+00
       21  1    1    2  504  502 -2.2786586896e+01 +7.9186678441e+00 +1.4900488481e+01 2.8354160185e+01 0.0000000000e+00 0.0000e+00 1.0000e+00
       21  1    1    2  505  501 -1.6289466231e+01 +8.5848412966e+01 -4.9712009948e+01 1.0053149085e+02 0.0000000000e+00 0.0000e+00 1.0000e+00
<mgrwt>
<rscale>  4 0.20832561E+03</rscale>
<asrwt>0</asrwt>
<pdfrwt beam="1">  1       21 0.42525618E-01 0.20832561E+03</pdfrwt>
<pdfrwt beam="2">  1       21 0.47075056E-01 0.20832561E+03</pdfrwt>
<totfact> 0.22764977E+04</totfact>
</mgrwt>
</event>
<event>
 6      1 +2.5168323e+02 2.27116900e+02 7.54677100e-03 1.05831300e-01
       21 -1    0    0  504  502 +0.0000000000e+00 +0.0000000000e+00 +2.1407602746e+02 2.1407602746e+02 0.0000000000e+00 0.0000e+00 -1.0000e+00
       21 -1    0    0  501  503 -0.0000000000e+00 -0.0000000000e+00 -7.0781418922e+02 7.0781418922e+02 0.0000000000e+00 0.0000e+00 1.0000e+00
        6  1    1    2  501    0 +9.1148104816e+01 -1.6662343639e+02 -3.4342694640e+02 4.2888508260e+02 1.7300000000e+02 0.0000e+00 1.0000e+00
       -6  1    1    2    0  505 -6.5969054661e+01 +8.9783193653e+01 -2.5548064155e+02 3.2804313168e+02 1.7300000000e+02 0.0000e+00 1.0000e+00
       21  1    1    2  504  503 -2.1676415594e+01 +4.9516706391e+01 -2.2167697726e+00 5.4098847243e+01 0.0000000000e+00 0.0000e+00 -1.0000e+00
       21  1    1    2  505  502 -3.5026345604e+00 +2.7323536345e+01 +1.0738619597e+02 1.1086315516e+02 0.0000000000e+00 0.0000e+00 -1.0000e+00
<mgrwt>
<rscale>  4 0.22711688E+03</rscale>
<asrwt>0</asrwt>
<pdfrwt beam="1">  1       21 0.32934774E-01 0.22711688E+03</pdfrwt>
<pdfrwt beam="2">  1       21 0.10889449E+00 0.22711688E+03</pdfrwt>
<totfact> 0.57898146E+03</totfact>
</mgrwt>
</event>
<event>
 6      1 +2.5168323e+02 3.84659100e+02 7.54677100e-03 1.11671100e-01
       21 -1    0    0  503  502 +0.0000000000e+00 +0.0000000000e+00 +4.9157264007e+02 4.9157264007e+02 0.0000000000e+00 0.0000e+00 1.0000e+00
       21 -1    0    0  501  503 -0.0000000000e+00 -0.0000000000e+00 -4.8627242012e+02 4.8627242012e+02 0.0000000000e+00 0.0000e+00 -1.0000e+00
        6  1    1    2  501    0 +3.1054977554e+02 +8.4811824914e+01 +2.3985965828e+02 4.3714512968e+02 1.7300000000e+02 0.0000e+00 1.0000e+00
       -6  1    1    2    0  504 -3.3307312496e+02 -1.0783134322e+02 -2.7678496707e+02 4.7864832931e+02 1.7300000000e+02 0.0000e+00 -1.0000e+00
       21  1    1    2  504  505 +2.1301342779e+00 +2.4555110708e+01 +2.6980978550e+01 3.6544002756e+01 0.0000000000e+00 0.0000e+00 1.0000e+00
       21  1    1    2  505  502 +2.0393215141e+01 -1.5355924013e+00 +1.5244550198e+01 2.5507598447e+01 0.0000000000e+00 0.0000e+00 -1.0000e+00
<mgrwt>
<rscale>  4 0.38465906E+03</rscale>
<asrwt>0</asrwt>
<pdfrwt beam="1">  1       21 0.75626560E-01 0.38465906E+03</pdfrwt>
<pdfrwt beam="2">  1       21 0.74811142E-01 0.38465906E+03</pdfrwt>
<totfact> 0.22156523E+03</totfact>
</mgrwt>
</event>
<event>
 6      1 +2.5168323e+02 2.48236800e+02 7.54677100e-03 9.87464100e-02
       21 -1    0    0  503  502 +0.0000000000e+00 +0.0000000000e+00 +3.5325033486e+02 3.5325033486e+02 0.0000000000e+00 0.0000e+00 -1.0000e+00
       21 -1    0    0  505  503 -0.0000000000e+00 -0.0000000000e+00 -2.7679188114e+02 2.7679188114e+02 0.0000000000e+00 0.0000e+00 1.0000e+00
        6  1    1    2  501    0 +3.7860150134e+01 -1.7647030753e+02 -7.4596816441e+01 2.6090006790e+02 1.7300000000e+02 0.0000e+00 1.0000e+00
       -6  1    1    2    0  504 -5.3198078729e+01 +1.5078356931e+02 +1.6311871741e+02 2.8653522702e+02 1.7300000000e+02 0.0000e+00 -1.0000e+00
       21  1    1    2  504  502 -8.3029391504e+00 +2.9792724692e+01 +2.4098601953e+01 3.9208262639e+01 0.0000000000e+00 0.0000e+00 -1.0000e+00
       21  1    1    2  505  501 +2.3640867745e+01 -4.1059864647e+00 -3.6162049193e+01 4.3398658440e+01 0.0000000000e+00 0.0000e+00 1.0000e+00
<mgrwt>
<rscale>  4 0.24823679E+03</rscale>
<asrwt>0</asrwt>
<pdfrwt beam="1">  1       21 0.54346205E-01 0.24823679E+03</pdfrwt>
<pdfrwt beam="2">  1       21 0.42583366E-01 0.24823679E+03</pdfrwt>
<totfact> 0.16442821E+04</totfact>
</mgrwt>
</event>
<event>
 6      1 +2.5168323e+02 1.88732700e+02 7.54677100e-03 1.17132900e-01
       21 -1    0    0  505  502 +0.0000000000e+00 +0.0000000000e+00 +9.5031567058e+02 9.5031567058e+02 0.0000000000e+00 0.0000e+00 1.0000e+00
       21 -1    0    0  504  503 -0.0000000000e+00 -0.0000000000e+00 -1.0370932541e+02 1.0370932541e+02 0.0000000000e+00 0.0000e+00 1.0000e+00
        6  1    1    2  501    0 -6.3271416812e+01 +5.3552305117e+01 +3.3750116987e+02 3.8821020238e+02 1.7300000000e+02 0.0000e+00 -1.0000e+00
       -6  1    1    2    0  502 +5.6949231191e+01 +9.2288512800e+01 +1.5969334874e+02 2.5921294366e+02 1.7300000000e+02 0.0000e+00 -1.0000e+00
       21  1    1    2  504  501 +2.4892938321e+01 +2.2341935637e+01 +2.9057768680e+01 4.4307723784e+01 0.0000000000e+00 0.0000e+00 -1.0000e+00
       21  1    1    2  505  503 -1.8570752700e+01 -1.6818275355e+02 +3.2035405788e+02 3.6229412616e+02 0.0000000000e+00 0.0000e+00 1.0000e+00
<mgrwt>
<rscale>  4 0.18873267E+03</rscale>
<asrwt>0</asrwt>
<pdfrwt beam="1">  1       21 0.14620241E+00 0.18873267E+03</pdfrwt>
<pdfrwt beam="2">  1       21 0.15955281E-01 0.18873267E+03</pdfrwt>
<totfact> 0.11237085E+04</totfact>
</mgrwt>
</event>
<event>
 6      1 +2.5168323e+02 2.25214900e+02 7.54677100e-03 1.09842800e-01
       21 -1    0    0  505  502 +0.0000000000e+00 +0.0000000000e+00 +4.8532871314e+02 4.8532871314e+02 0.0000000000e+00 0.0000e+00 1.0000e+00
       21 -1    0    0  502  503 -0.0000000000e+00 -0.0000000000e+00 -2.0983995989e+02 2.0983995989e+02 0.0000000000e+00 0.0000e+00 1.0000e+00
        6  1    1    2  501    0 -2.8041136217e+01 -1.2103955563e+02 +2.6081558461e+02 3.3673527959e+02 1.7300000000e+02 0.0000e+00 1.0000e+00
       -6  1    1    2    0  504 +5.4984056883e+01 +1.5568673663e+02 -6.9966149016e+01 2.4917036036e+02 1.7300000000e+02 0.0000e+00 1.0000e+00
       21  1    1    2  504  503 -1.5079866519e+01 -1.6133579485e+01 +2.8043781150e-01 2.2085592738e+01 0.0000000000e+00 0.0000e+00 1.0000e+00
       21  1    1    2  505  501 -1.1863054147e+01 -1.8513601508e+01 +8.4358879849e+01 8.7177440338e+01 0.0000000000e+00 0.0000e+00 1.0000e+00
<mgrwt>
<rscale>  4 0.22521495E+03</rscale>
<asrwt>0</asrwt>
<pdfrwt beam="1">  1       21 0.74665956E-01 0.22521495E+03</pdfrwt>
<pdfrwt beam="2">  1       21 0.32283071E-01 0.22521495E+03</pdfrwt>
<totfact> 0.14528092E+04</totfact>
</mgrwt>
</event>
<event>
 6      1 +2.5168323e+02 2.58923600e+02 7.54677100e-03 1.16820100e-01
       21 -1    0    0  505  502 +0.0000000000e+00 +0.0000000000e+00 +7.0383820986e+02 7.0383820986e+02 0.0000000000e+00 0.0000e+00 1.0000e+00
       21 -1    0    0  501  503 -0.0000000000e+00 -0.0000000000e+00 -4.4253569457e+02 4.4253569457e+02 0.0000000000e+00 0.0000e+00 1.0000e+00
        6  1    1    2  501    0 -2.9401092334e+02 +1.5108335888e+01 +2.8502690782e+01 3.4265447355e+02 1.7300000000e+02 0.0000e+00 1.0000e+00
       -6  1    1    2    0  502 +1.2525177987e+02 +4.8280554155e+01 +1.7170721378e+01 2.1964255950e+02 1.7300000000e+02 0.0000e+00 1.0000e+00
       21  1    1    2  504  503 -1.4791001952e+01 -1.6586645520e+02 -1.0777172476e+02 1.9835624356e+02 0.0000000000e+00 0.0000e+00 1.0000e+00
       21  1    1    2  505  504 +1.8355014543e+02 +1.0247756516e+02 +3.2340082789e+02 3.8572062783e+02 0.0000000000e+00 0.0000e+00 1.0000e+00
<mgrwt>
<rscale>  4 0.25892355E+03</rscale>
<asrwt>0</asrwt>
<pdfrwt beam="1">  1       21 0.10828280E+00 0.25892355E+03</pdfrwt>
<pdfrwt beam="2">  1       21 0.68082415E-01 0.25892355E+03</pdfrwt>
<totfact> 0.12625288E+03</totfact>
</mgrwt>
</event>
<event>
 6      1 +2.5168323e+02 2.85203100e+02 7.54677100e-03 1.04003000e-01
       21 -1    0    0  504  502 +0.0000000000e+00 +0.0000000000e+00 +2.4318859554e+02 2.4318859554e+02 0.0000000000e+00 0.0000e+00 1.0000e+00
       21 -1    0    0  505  503 -0.0000000000e+00 -0.0000000000e+00 -2.1108988047e+03 2.1108988047e+03 0.0000000000e+00 0.0000e+00 -1.0000e+00
        6  1    1    2  501    0 -2.0317787448e+02 -1.0683305181e+02 -2.5985646992e+02 3.8749056066e+02 1.7300000000e+02 0.0000e+00 -1.0000e+00
       -6  1    1    2    0  503 +2.2640165959e+02 +3.4809360691e+01 +5.8690347787e+01 2.9298969261e+02 1.7300000000e+02 0.0000e+00 1.0000e+00
       21  1    1    2  504  501 +7.6822820908e+00 +5.5916593705e+01 -1.5691578206e+03 1.5701725857e+03 0.0000000000e+00 0.0000e+00 1.0000e+00
       21  1    1    2  505  502 -3.0906067195e+01 +1.6107097419e+01 -9.7386266410e+01 1.0343456126e+02 0.0000000000e+00 0.0000e+00 -1.0000e+00
<mgrwt>
<rscale>  4 0.28520306E+03</rscale>
<asrwt>0</asrwt>
<pdfrwt beam="1">  1       21 0.37413630E-01 0.28520306E+03</pdfrwt>
<pdfrwt beam="2">  1       21 0.32475366E+00 0.28520306E+03</pdfrwt>
<totfact> 0.14960075E+02</totfact>
</mgrwt>
</event>
<event>
 6      1 +2.5168323e+02 2.42961300e+02 7.54677100e-03 1.05831300e-01
       21 -1    0    0  504  502 +0.0000000000e+00 +0.0000000000e+00 +3.5387126472e+02 3.5387126472e+02 0.0000000000e+00 0.0000e+00 -1.0000e+00
       21 -1    0    0  501  503 -0.0000000000e+00 -0.0000000000e+00 -3.0470647232e+02 3.0470647232e+02 0.0000000000e+00 0.0000e+00 1.0000e+00
        6  1    1    2  501    0 +4.4623685538e+01 +1.6802038075e+02 -1.2408875701e+02 2.7486204044e+02 1.7300000000e+02 0.0000e+00 1.0000e+00
       -6  1    1    2    0  505 -4.9682314088e+01 -1.5661358499e+02 +5.2695644696e+01 2.4433988276e+02 1.7300000000e+02 0.0000e+00 -1.0000e+00
       21  1    1    2  504  503 +2.4925425129e+01 -9.0367259231e+00 +1.2198262915e+01 2.9184531029e+01 0.0000000000e+00 0.0000e+00 1.0000e+00
       21  1    1    2  505  502 -1.9866796578e+01 -2.3700698280e+00 +1.0835964180e+02 1.1019128282e+02 0.0000000000e+00 0.0000e+00 -1.0000e+00
<mgrwt>
<rscale>  4 0.24296130E+03</rscale>
<asrwt>0</asrwt>
<pdfrwt beam="1">  1       21 0.54441733E-01 0.24296130E+03</pdfrwt>
<pdfrwt beam="2">  1       21 0.46877919E-01 0.24296130E+03</pdfrwt>
<totfact> 0.13471490E+04</totfact>
</mgrwt>
</event>
<event>
 6      1 +2.5168323e+02 1.85726200e+02 7.54677100e-03 1.15942100e-01
       21 -1    0    0  504  502 +0.0000000000e+00 +0.0000000000e+00 +1.9658308278e+02 1.9658308278e+02 0.0000000000e+00 0.0000e+00 1.0000e+00
       21 -1    0    0  501  503 -0.0000000000e+00 -0.0000000000e+00 -3.2603358487e+02 3.2603358487e+02 0.0000000000e+00 0.0000e+00 1.0000e+00
        6  1    1    2  501    0 +7.1395681129e+01 -7.0382877472e+01 +7.6308179414e+00 2.0009578233e+02 1.7300000000e+02 0.0000e+00 1.0000e+00
       -6  1    1    2    0  502 -3.2633981533e+01 +1.2685352372e+01 -2.6053868195e+01 1.7842000718e+02 1.7300000000e+02 0.0000e+00 -1.0000e+00
       21  1    1    2  504  505 -9.0421496123e+00 +5.4963320492e+01 -9.5251008606e+01 1.1034256527e+02 0.0000000000e+00 0.0000e+00 1.0000e+00
       21  1    1    2  505  503 -2.9719549984e+01 +2.7342046074e+00 -1.5776443234e+01 3.3758312861e+01 0.0000000000e+00 0.0000e+00 1.0000e+00
<mgrwt>
<rscale>  4 0.18572622E+03</rscale>
<asrwt>0</asrwt>
<pdfrwt beam="1">  1       21 0.30243551E-01 0.18572622E+03</pdfrwt>
<pdfrwt beam="2">  1       21 0.50159013E-01 0.18572622E+03</pdfrwt>
<totfact> 0.39843036E+04</totfact>
</mgrwt>
</event>
<event>
 6      1 +2.5168323e+02 2.02043600e+02 7.54677100e-03 1.17132900e-01
       21 -1    0    0  505  502 +0.0000000000e+00 +0.0000000000e+00 +3.1790447697e+02 3.1790447697e+02 0.0000000000e+00 0.0000e+00 -1.0000e+00
       21 -1    0    0  504  503 -0.0000000000e+00 -0.0000000000e+00 -4.6222404722e+02 4.6222404722e+02 0.0000000000e+00 0.0000e+00 -1.0000e+00
        6  1    1    2  501    0 -2.1283579042e+02 -6.2265062469e+01 +2.0871694758e+01 2.8202950081e+02 1.7300000000e+02 0.0000e+00 -1.0000e+00
       -6  1    1    2    0  502 +2.7255086288e+00 +3.5833430133e+01 +1.4796496706e+01 1.7731158853e+02 1.7300000000e+02 0.0000e+00 -1.0000e+00
       21  1    1    2  504  501 +9.1825049414e+01 -2.5971975206e+01 -1.6492084835e+02 1.9053941696e+02 0.0000000000e+00 0.0000e+00 -1.0000e+00
       21  1    1    2  505  503 +1.1828523238e+02 +5.2403607542e+01 -1.5066913361e+01 1.3024801787e+02 0.0000000000e+00 0.0000e+00 -1.0000e+00
<mgrwt>
<rscale>  4 0.20204357E+03</rscale>
<asrwt>0</asrwt>
<pdfrwt beam="1">  1       21 0.48908381E-01 0.20204357E+03</pdfrwt>
<pdfrwt beam="2">  1       21 0.71111391E-01 0.20204357E+03</pdfrwt>
<totfact> 0.70906032E+03</totfact>
</mgrwt>
</event>
<event>
 6      1 +2.5168323e+02 2.15342300e+02 7.54677100e-03 1.15942100e-01
       21 -1    0    0  505  502 +0.0000000000e+00 +0.0000000000e+00 +1.7145092209e+02 1.7145092209e+02 0.0000000000e+00 0.0000e+00 1.0000e+00
       21 -1    0    0  501  503 -0.0000000000e+00 -0.0000000000e+00 -8.0556464757e+02 8.0556464757e+02 0.0000000000e+00 0.0000e+00 1.0000e+00
        6  1    1    2  501    0 -7.2692081585e+01 -1.2433622219e+02 +5.4904984179e+01 2.3170496792e+02 1.7300000000e+02 0.0000e+00 1.0000e+00
       -6  1    1    2    0  504 +2.8706994949e+01 +3.7327251980e+01 -4.3848592701e+02 4.7372600043e+02 1.7300000000e+02 0.0000e+00 1.0000e+00
       21  1    1    2  504  502 +3.2201223147e+01 +5.1756116172e+01 -1.0529802638e+02 1.2166876630e+02 0.0000000000e+00 0.0000e+00 1.0000e+00
       21  1    1    2  505  503 +1.1783863490e+01 +3.5252854034e+01 -1.4523475627e+02 1.4991583500e+02 0.0000000000e+00 0.0000e+00 1.0000e+00
<mgrwt>
<rscale>  4 0.21534225E+03</rscale>
<asrwt>0</asrwt>
<pdfrwt beam="1">  1       21 0.26377065E-01 0.21534225E+03</pdfrwt>
<pdfrwt beam="2">  1       21 0.12393302E+00 0.21534225E+03</pdfrwt>
<totfact> 0.65481847E+03</totfact>
</mgrwt>
</event>
<event>
 6      1 +2.5168323e+02 3.09443600e+02 7.54677100e-03 1.15942100e-01
       21 -1    0    0  504  502 +0.0000000000e+00 +0.0000000000e+00 +6.5905145697e+02 6.5905145697e+02 0.0000000000e+00 0.0000e+00 1.0000e+00
       21 -1    0    0  501  503 -0.0000000000e+00 -0.0000000000e+00 -3.5893353421e+02 3.5893353421e+02 0.0000000000e+00 0.0000e+00 -1.0000e+00
        6  1    1    2  501    0 -8.4835564289e+01 -2.8970507019e+02 -5.4391910615e+01 3.5215561986e+02 1.7300000000e+02 0.0000e+00 1.0000e+00
       -6  1    1    2    0  502 +1.5527095923e+02 +6.0729393148e+01 +3.4884621582e+02 4.2357975904e+02 1.7300000000e+02 0.0000e+00 -1.0000e+00
       21  1    1    2  504  505 -5.3465110048e+01 +1.9640574999e+02 +1.5757700451e+01 2.0416180286e+02 0.0000000000e+00 0.0000e+00 -1.0000e+00
       21  1    1    2  505  503 -1.6970284889e+01 +3.2569927044e+01 -1.0094082909e+01 3.8087809423e+01 0.0000000000e+00 0.0000e+00 1.0000e+00
<mgrwt>
<rscale>  4 0.29047426E+03</rscale>
<asrwt>0</asrwt>
<pdfrwt beam="1">  1       21 0.10139253E+00 0.30944358E+03</pdfrwt>
<pdfrwt beam="2">  1       21 0.55220544E-01 0.30944358E+03</pdfrwt>
<totfact> 0.22614394E+03</totfact>
</mgrwt>
</event>
<event>
 6      1 +2.5168323e+02 1.85338800e+02 7.54677100e-03 1.16820100e-01
       21 -1    0    0  501  502 +0.0000000000e+00 +0.0000000000e+00 +5.9715090450e+02 5.9715090450e+02 0.0000000000e+00 0.0000e+00 1.0000e+00
       21 -1    0    0  504  503 -0.0000000000e+00 -0.0000000000e+00 -2.8684669049e+02 2.8684669049e+02 0.0000000000e+00 0.0000e+00 1.0000e+00
        6  1    1    2  501    0 -4.6879033222e+01 -9.4327515269e+00 +4.9768262473e+02 5.2905917959e+02 1.7300000000e+02 0.0000e+00 1.0000e+00
       -6  1    1    2    0  503 +7.2069513632e+01 +3.2062386808e+01 -1.0097737277e+02 2.1528455879e+02 1.7300000000e+02 0.0000e+00 1.0000e+00
       21  1    1    2  504  505 -4.1074464848e+00 -3.1455363736e+01 -1.0531376701e+02 1.0998772907e+02 0.0000000000e+00 0.0000e+00 1.0000e+00
       21  1    1    2  505  502 -2.1083033925e+01 +8.8257284554e+00 +1.8912729070e+01 2.9666127538e+01 0.0000000000e+00 0.0000e+00 1.0000e+00
<mgrwt>
<rscale>  4 0.18533885E+03</rscale>
<asrwt>0</asrwt>
<pdfrwt beam="1">  1       21 0.91869370E-01 0.18533885E+03</pdfrwt>
<pdfrwt beam="2">  1       21 0.44130260E-01 0.18533885E+03</pdfrwt>
<totfact> 0.49691597E+03</totfact>
</mgrwt>
</event>
<event>
 6      1 +2.5168323e+02 2.05673400e+02 7.54677100e-03 1.09842800e-01
       21 -1    0    0  504  502 +0.0000000000e+00 +0.0000000000e+00 +1.0292452854e+03 1.0292452854e+03 0.0000000000e+00 0.0000e+00 1.0000e+00
       21 -1    0    0  505  503 -0.0000000000e+00 -0.0000000000e+00 -9.4053286054e+01 9.4053286054e+01 0.0000000000e+00 0.0000e+00 -1.0000e+00
        6  1    1    2  501    0 -9.7924886455e+01 -4.4899657378e+01 +1.2268008378e+02 2.3787531519e+02 1.7300000000e+02 0.0000e+00 -1.0000e+00
       -6  1    1    2    0  503 +1.2224990972e+02 +9.8604795604e+00 +3.1367783528e+02 3.7863577991e+02 1.7300000000e+02 0.0000e+00 1.0000e+00
       21  1    1    2  504  501 -3.3353068954e+01 +1.6082897513e+01 +8.8729660387e+01 9.6145927804e+01 0.0000000000e+00 0.0000e+00 1.0000e+00
       21  1    1    2  505  502 +9.0280456894e+00 +1.8956280306e+01 +4.1010441989e+02 4.1064154854e+02 0.0000000000e+00 0.0000e+00 1.0000e+00
<mgrwt>
<rscale>  4 0.20567345E+03</rscale>
<asrwt>0</asrwt>
<pdfrwt beam="1">  1       21 0.15834542E+00 0.20567345E+03</pdfrwt>
<pdfrwt beam="2">  1       21 0.14469737E-01 0.20567345E+03</pdfrwt>
<totfact> 0.10734492E+04</totfact>
</mgrwt>
</event>
<event>
 6      1 +2.5168323e+02 3.46706600e+02 7.54677100e-03 1.16820100e-01
       21 -1    0    0  505  502 +0.0000000000e+00 +0.0000000000e+00 +9.6344813470e+02 9.6344813470e+02 0.0000000000e+00 0.0000e+00 1.0000e+00
       21 -1    0    0  502  503 -0.0000000000e+00 -0.0000000000e+00 -3.0163462642e+02 3.0163462642e+02 0.0000000000e+00 0.0000e+00 -1.0000e+00
        6  1    1    2  501    0 -4.1539271492e+02 -6.9549746208e+01 +2.4309169734e+02 5.1615002482e+02 1.7300000000e+02 0.0000e+00 1.0000e+00
       -6  1    1    2    0  503 +1.6781168116e+02 -2.8732859969e+01 +1.3519870709e+00 2.4272858391e+02 1.7300000000e+02 0.0000e+00 -1.0000e+00
       21  1    1    2  504  501 -4.0193910794e+00 +2.3286770483e+01 +2.8790808276e+01 3.7247010959e+01 0.0000000000e+00 0.0000e+00 -1.0000e+00
       21  1    1    2  505  504 +2.5160042484e+02 +7.4995835695e+01 +3.8857901559e+02 4.6895714143e+02 0.0000000000e+00 0.0000e+00 -1.0000e+00
<mgrwt>
<rscale>  4 0.31690803E+03</rscale>
<asrwt>0</asrwt>
<pdfrwt beam="1">  1       21 0.14822279E+00 0.34670656E+03</pdfrwt>
<pdfrwt beam="2">  1       21 0.46405327E-01 0.34670656E+03</pdfrwt>
<totfact> 0.12219802E+03</totfact>
</mgrwt>
</event>
<event>
 6      1 +2.5168323e+02 3.09306100e+02 7.54677100e-03 1.16820100e-01
       21 -1    0    0  504  502 +0.0000000000e+00 +0.0000000000e+00 +1.0878751606e+03 1.0878751606e+03 0.0000000000e+00 0.0000e+00 -1.0000e+00
       21 -1    0    0  501  503 -0.0000000000e+00 -0.0000000000e+00 -4.2890332315e+02 4.2890332315e+02 0.0000000000e+00 0.0000e+00 -1.0000e+00
        6  1    1    2  501    0 +2.9616520707e+02 +1.5282626898e+02 +9.6335473759e+01 3.8765864091e+02 1.7300000000e+02 0.0000e+00 -1.0000e+00
       -6  1    1    2    0  505 -2.1376317448e+02 +2.1061068938e-02 +4.0062687063e+02 4.8592755085e+02 1.7300000000e+02 0.0000e+00 -1.0000e+00
       21  1    1    2  504  503 -6.3398760098e+01 -5.7036810766e+01 -2.2679899384e+02 2.4230225787e+02 0.0000000000e+00 0.0000e+00 -1.0000e+00
       21  1    1    2  505  502 -1.9003272485e+01 -9.5810519284e+01 +3.8880848686e+02 4.0089003408e+02 0.0000000000e+00 0.0000e+00 -1.0000e+00
<mgrwt>
<rscale>  4 0.30930613E+03</rscale>
<asrwt>0</asrwt>
<pdfrwt beam="1">  1       21 0.16736541E+00 0.30930613E+03</pdfrwt>
<pdfrwt beam="2">  1       21 0.65985127E-01 0.30930613E+03</pdfrwt>
<totfact> 0.42155340E+02</totfact>
</mgrwt>
</event>
<event>
 6      1 +2.5168323e+02 3.50399600e+02 7.54677100e-03 1.03924000e-01
       21 -1    0    0  504  502 +0.0000000000e+00 +0.0000000000e+00 +1.5241640824e+03 1.5241640824e+03 0.0000000000e+00 0.0000e+00 -1.0000e+00
       21 -1    0    0  501  503 -0.0000000000e+00 -0.0000000000e+00 -1.8457335523e+03 1.8457335523e+03 0.0000000000e+00 0.0000e+00 -1.0000e+00
        6  1    1    2  501    0 +3.0489427605e+02 -2.9230163550e+01 -1.7656991835e+03 1.8003992692e+03 1.7300000000e+02 0.0000e+00 -1.0000e+00
       -6  1    1    2    0  505 -1.2392450051e+02 -1.2059857736e+02 +2.4861889802e+02 3.4877163753e+02 1.7300000000e+02 0.0000e+00 -1.0000e+00
       21  1    1    2  504  503 -2.0947712049e-01 +2.9839416259e+01 +1.5136824325e+02 1.5428149503e+02 0.0000000000e+00 0.0000e+00 -1.0000e+00
       21  1    1    2  505  502 -1.8076029842e+02 +1.1998932465e+02 +1.0441425724e+03 1.0664452330e+03 0.0000000000e+00 0.0000e+00 -1.0000e+00
<mgrwt>
<rscale>  4 0.32028589E+03</rscale>
<asrwt>0</asrwt>
<pdfrwt beam="1">  1       21 0.23448678E+00 0.35039956E+03</pdfrwt>
<pdfrwt beam="2">  1       21 0.28395901E+00 0.35039956E+03</pdfrwt>
<totfact> 0.26864627E+00</totfact>
</mgrwt>
</event>
<event>
 6      1 +2.5168323e+02 3.45414000e+02 7.54677100e-03 1.16820100e-01
       21 -1    0    0  505  502 +0.0000000000e+00 +0.0000000000e+00 +1.0838886640e+03 1.0838886640e+03 0.0000000000e+00 0.0000e+00 1.0000e+00
       21 -1    0    0  501  503 -0.0000000000e+00 -0.0000000000e+00 -9.8477041119e+02 9.8477041119e+02 0.0000000000e+00 0.0000e+00 1.0000e+00
        6  1    1    2  501    0 -2.9807543203e+02 +1.7578955004e+00 +6.3334667219e+02 7.2104719717e+02 1.7300000000e+02 0.0000e+00 -1.0000e+00
       -6  1    1    2    0  502 +3.0126616829e+02 +3.2036901496e+00 +3.1398724859e+02 4.6828256434e+02 1.7300000000e+02 0.0000e+00 1.0000e+00
       21  1    1    2  504  503 -4.8358549660e+00 -3.1682455108e+01 -8.5172592326e+02 8.5232869939e+02 0.0000000000e+00 0.0000e+00 1.0000e+00
       21  1    1    2  505  504 +1.6451187053e+00 +2.6720869458e+01 +3.5102552967e+00 2.7000614296e+01 0.0000000000e+00 0.0000e+00 1.0000e+00
<mgrwt>
<rscale>  4 0.34541403E+03</rscale>
<asrwt>0</asrwt>
<pdfrwt beam="1">  1       21 0.16675210E+00 0.34541403E+03</pdfrwt>
<pdfrwt beam="2">  1       21 0.15150314E+00 0.34541403E+03</pdfrwt>
<totfact> 0.55378532E+01</totfact>
</mgrwt>
</event>
<event>
 6      1 +2.5168323e+02 1.92067500e+02 7.54677100e-03 1.07240600e-01
       21 -1    0    0  505  502 +0.0000000000e+00 +0.0000000000e+00 +2.2661552348e+02 2.2661552348e+02 0.0000000000e+00 0.0000e+00 -1.0000e+00
       21 -1    0    0  504  503 -0.0000000000e+00 -0.0000000000e+00 -3.4697093870e+02 3.4697093870e+02 0.0000000000e+00 0.0000e+00 -1.0000e+00
        6  1    1    2  501    0 +9.0743808354e+01 -9.8724724716e+01 -7.7724446347e+01 2.3227376000e+02 1.7300000000e+02 0.0000e+00 -1.0000e+00
       -6  1    1    2    0  502 -6.1798706641e+01 +2.1222748610e+01 +6.0985859700e+01 1.9472483222e+02 1.7300000000e+02 0.0000e+00 -1.0000e+00
       21  1    1    2  504  501 -4.1830651146e+01 +4.6433627344e+01 -3.8793933406e+01 7.3558509995e+01 0.0000000000e+00 0.0000e+00 1.0000e+00
       21  1    1    2  505  503 +1.2885549433e+01 +3.1068348762e+01 -6.4822895164e+01 7.3029359962e+01 0.0000000000e+00 0.0000e+00 1.0000e+00
<mgrwt>
<rscale>  4 0.19206748E+03</rscale>
<asrwt>0</asrwt>
<pdfrwt beam="1">  1       21 0.34863927E-01 0.19206748E+03</pdfrwt>
<pdfrwt beam="2">  1       21 0.53380144E-01 0.19206748E+03</pdfrwt>
<totfact> 0.26357624E+04</totfact>
</mgrwt>
</event>
<event>
 6      1 +2.5168323e+02 1.95227300e+02 7.54677100e-03 1.15942100e-01
       21 -1    0    0  504  502 +0.0000000000e+00 +0.0000000000e+00 +1.3148130030e+02 1.3148130030e+02 0.0000000000e+00 0.0000e+00 -1.0000e+00
       21 -1    0    0  501  503 -0.0000000000e+00 -0.0000000000e+00 -4.5676597505e+02 4.5676597505e+02 0.0000000000e+00 0.0000e+00 -1.0000e+00
        6  1    1    2  501    0 -1.1752648198e+02 -1.6662300690e+00 -1.6658610027e+02 2.6738582440e+02 1.7300000000e+02 0.0000e+00 -1.0000e+00
       -6  1    1    2    0  505 +6.3254586724e+01 -4.6986706109e+01 -9.7647360438e+01 2.1371219032e+02 1.7300000000e+02 0.0000e+00 -1.0000e+00
       21  1    1    2  504  503 +4.3316082130e+01 +5.6642529172e+00 -3.0991196282e+01 5.3561375815e+01 0.0000000000e+00 0.0000e+00 -1.0000e+00
       21  1    1    2  505  502 +1.0955813128e+01 +4.2988683261e+01 -3.0060017766e+01 5.3587884805e+01 0.0000000000e+00 0.0000e+00 1.0000e+00
<mgrwt>
<rscale>  4 0.19522733E+03</rscale>
<asrwt>0</asrwt>
<pdfrwt beam="1">  1       21 0.20227893E-01 0.19522733E+03</pdfrwt>
<pdfrwt beam="2">  1       21 0.70271687E-01 0.19522733E+03</pdfrwt>
<totfact> 0.41464799E+04</totfact>
</mgrwt>
</event>
<event>
 6      1 +2.5168323e+02 2.69583600e+02 7.54677100e-03 1.17132900e-01
       21 -1    0    0  505  502 +0.0000000000e+00 +0.0000000000e+00 +1.8846949156e+03 1.8846949156e+03 0.0000000000e+00 0.0000e+00 1.0000e+00
       21 -1    0    0  504  503 -0.0000000000e+00 -0.0000000000e+00 -8.6306852808e+01 8.6306852808e+01 0.0000000000e+00 0.0000e+00 1.0000e+00
        6  1    1    2  501    0 -1.9267666459e+02 -8.2631027770e+01 +5.0725763970e+02 5.7549239514e+02 1.7300000000e+02 0.0000e+00 1.0000e+00
       -6  1    1    2    0  502 +1.2635023317e+02 +1.7625046760e+02 +8.9158060818e+02 9.3374171463e+02 1.7300000000e+02 0.0000e+00 1.0000e+00
       21  1    1    2  504  501 +1.8251047142e+01 +5.3661281676e+01 +3.7501096361e+01 6.7962975959e+01 0.0000000000e+00 0.0000e+00 1.0000e+00
       21  1    1    2  505  503 +4.8075384280e+01 -1.4728072151e+02 +3.6204871859e+02 3.9380468272e+02 0.0000000000e+00 0.0000e+00 1.0000e+00
<mgrwt>
<rscale>  4 0.26958361E+03</rscale>
<asrwt>0</asrwt>
<pdfrwt beam="1">  1       21 0.28995303E+00 0.26958361E+03</pdfrwt>
<pdfrwt beam="2">  1       21 0.13277979E-01 0.26958361E+03</pdfrwt>
<totfact> 0.17582588E+03</totfact>
</mgrwt>
</event>
<event>
 6      1 +2.5168323e+02 2.57593400e+02 7.54677100e-03 1.15942100e-01
       21 -1    0    0  504  502 +0.0000000000e+00 +0.0000000000e+00 +8.0368874345e+02 8.0368874345e+02 0.0000000000e+00 0.0000e+00 1.0000e+00
       21 -1    0    0  501  503 -0.0000000000e+00 -0.0000000000e+00 -4.4827596585e+02 4.4827596585e+02 0.0000000000e+00 0.0000e+00 -1.0000e+00
        6  1    1    2  501    0 -7.3740176068e+01 -4.8295202528e+01 -4.8955124008e+01 2.0023896804e+02 1.7300000000e+02 0.0000e+00 -1.0000e+00
       -6  1    1    2    0  502 +1.9987150907e+02 +7.3890529900e+01 +6.8567686031e+02 7.3857307513e+02 1.7300000000e+02 0.0000e+00 1.0000e+00
       21  1    1    2  504  505 -3.9380017579e+01 -1.1116178559e+01 -4.4080526442e+01 6.0145224429e+01 0.0000000000e+00 0.0000e+00 1.0000e+00
       21  1    1    2  505  503 -8.6751315423e+01 -1.4479148813e+01 -2.3722843227e+02 2.5300744170e+02 0.0000000000e+00 0.0000e+00 -1.0000e+00
<mgrwt>
<rscale>  4 0.25759344E+03</rscale>
<asrwt>0</asrwt>
<pdfrwt beam="1">  1       21 0.12364442E+00 0.25759344E+03</pdfrwt>
<pdfrwt beam="2">  1       21 0.68965533E-01 0.25759344E+03</pdfrwt>
<totfact> 0.88482484E+02</totfact>
</mgrwt>
</event>
<event>
 6      1 +2.5168323e+02 1.78798900e+02 7.54677100e-03 1.03924000e-01
       21 -1    0    0  504  502 +0.0000000000e+00 +0.0000000000e+00 +6.2844943810e+02 6.2844943810e+02 0.0000000000e+00 0.0000e+00 1.0000e+00
       21 -1    0    0  501  503 -0.0000000000e+00 -0.0000000000e+00 -8.7726169752e+01 8.7726169752e+01 0.0000000000e+00 0.0000e+00 1.0000e+00
        6  1    1    2  501    0 -2.7071318839e+01 +2.2120343554e+01 +7.2917573454e+01 1.9096632798e+02 1.7300000000e+02 0.0000e+00 1.0000e+00
       -6  1    1    2    0  505 +6.4612054511e+01 -3.4898025070e+01 +3.3095346716e+02 3.8059399256e+02 1.7300000000e+02 0.0000e+00 1.0000e+00
       21  1    1    2  504  503 -2.1237057942e+01 -5.7362455039e+00 +6.0378654047e+01 6.4261178070e+01 0.0000000000e+00 0.0000e+00 1.0000e+00
       21  1    1    2  505  502 -1.6303677730e+01 +1.8513927020e+01 +7.6473573683e+01 8.0354109248e+01 0.0000000000e+00 0.0000e+00 -1.0000e+00
<mgrwt>
<rscale>  4 0.17879892E+03</rscale>
<asrwt>0</asrwt>
<pdfrwt beam="1">  1       21 0.96684526E-01 0.17879892E+03</pdfrwt>
<pdfrwt beam="2">  1       21 0.13496334E-01 0.17879892E+03</pdfrwt>
<totfact> 0.42537827E+04</totfact>
</mgrwt>
</event>
<event>
 6      1 +2.5168323e+02 2.61334400e+02 7.54677100e-03 1.12068800e-01
       21 -1    0    0  504  502 +0.0000000000e+00 +0.0000000000e+00 +7.5553881195e+02 7.5553881195e+02 0.0000000000e+00 0.0000e+00 1.0000e+00
       21 -1    0    0  502  503 -0.0000000000e+00 -0.0000000000e+00 -2.5259529784e+02 2.5259529784e+02 0.0000000000e+00 0.0000e+00 1.0000e+00
        6  1    1    2  501    0 +4.4722030696e+01 -8.6392432422e+00 +1.0713244205e+02 2.0852111810e+02 1.7300000000e+02 0.0000e+00 -1.0000e+00
       -6  1    1    2    0  505 -2.7427083948e+01 +2.1127978612e+02 +4.5719379493e+02 5.3324155791e+02 1.7300000000e+02 0.0000e+00 -1.0000e+00
       21  1    1    2  504  501 -7.3999758317e+01 -1.5914959507e+02 -5.4062174254e+00 1.7559551540e+02 0.0000000000e+00 0.0000e+00 1.0000e+00
       21  1    1    2  505  503 +5.6704811570e+01 -4.3490947811e+01 -5.5976505442e+01 9.0775918382e+01 0.0000000000e+00 0.0000e+00 -1.0000e+00
<mgrwt>
<rscale>  4 0.23956715E+03</rscale>
<asrwt>0</asrwt>
<pdfrwt beam="1">  1       21 0.11623674E+00 0.26133441E+03</pdfrwt>
<pdfrwt beam="2">  1       21 0.38860815E-01 0.26133441E+03</pdfrwt>
<totfact> 0.34647160E+03</totfact>
</mgrwt>
</event>
<event>
 6      1 +2.5168323e+02 2.27986800e+02 7.54677100e-03 1.07240600e-01
       21 -1    0    0  505  502 +0.0000000000e+00 +0.0000000000e+00 +1.1591021271e+03 1.1591021271e+03 0.0000000000e+00 0.0000e+00 -1.0000e+00
       21 -1    0    0  504  503 -0.0000000000e+00 -0.0000000000e+00 -1.3226595955e+02 1.3226595955e+02 0.0000000000e+00 0.0000e+00 -1.0000e+00
        6  1    1    2  501    0 -1.2972249280e+02 -3.5553809721e+01 +6.9864082824e+02 7.3220216157e+02 1.7300000000e+02 0.0000e+00 -1.0000e+00
       -6  1    1    2    0  502 +1.7943153283e+02 +3.2496598202e+01 +3.5386719518e+02 4.3405379355e+02 1.7300000000e+02 0.0000e+00 -1.0000e+00
       21  1    1    2  504  501 -2.3353611897e+01 +2.4106454920e+01 +3.9436503396e+01 5.1785617285e+01 0.0000000000e+00 0.0000e+00 -1.0000e+00
       21  1    1    2  505  503 -2.6355428129e+01 -2.1049243402e+01 -6.5108359292e+01 7.3326514232e+01 0.0000000000e+00 0.0000e+00 -1.0000e+00
<mgrwt>
<rscale>  4 0.22798678E+03</rscale>
<asrwt>0</asrwt>
<pdfrwt beam="1">  1       21 0.17832340E+00 0.22798678E+03</pdfrwt>
<pdfrwt beam="2">  1       21 0.20348610E-01 0.22798678E+03</pdfrwt>
<totfact> 0.40501492E+03</totfact>
</mgrwt>
</event>
<event>
 6      1 +2.5168323e+02 2.11011900e+02 7.54677100e-03 1.07240600e-01
       21 -1    0    0  505  502 +0.0000000000e+00 +0.0000000000e+00 +2.8461043599e+03 2.8461043599e+03 0.0000000000e+00 0.0000e+00 1.0000e+00
       21 -1    0    0  504  503 -0.0000000000e+00 -0.0000000000e+00 -6.7713334967e+01 6.7713334967e+01 0.0000000000e+00 0.0000e+00 1.0000e+00
        6  1    1    2  501    0 +8.6739275493e+01 +1.1130318718e+02 +9.0684361040e+02 9.3391992972e+02 1.7300000000e+02 0.0000e+00 1.0000e+00
       -6  1    1    2    0  502 -7.6257411958e+01 -8.2310096032e+01 +1.8138406375e+03 1.8255237613e+03 1.7300000000e+02 0.0000e+00 1.0000e+00
       21  1    1    2  504  501 +6.0107813820e+01 +7.2507449369e+00 +4.1455604846e+01 7.3376356938e+01 0.0000000000e+00 0.0000e+00 -1.0000e+00
       21  1    1    2  505  503 -7.0589677355e+01 -3.6243836083e+01 +1.6251172132e+01 8.0997646872e+01 0.0000000000e+00 0.0000e+00 1.0000e+00
<mgrwt>
<rscale>  4 0.21101194E+03</rscale>
<asrwt>0</asrwt>
<pdfrwt beam="1">  1       21 0.43786212E+00 0.21101194E+03</pdfrwt>
<pdfrwt beam="2">  1       21 0.10417438E-01 0.21101194E+03</pdfrwt>
<totfact> 0.36633515E+02</totfact>
</mgrwt>
</event>
<event>
 6      1 +2.5168323e+02 2.05067100e+02 7.54677100e-03 1.11471900e-01
       21 -1    0    0  503  502 +0.0000000000e+00 +0.0000000000e+00 +1.0508979005e+03 1.0508979005e+03 0.0000000000e+00 0.0000e+00 -1.0000e+00
       21 -1    0    0  501  503 -0.0000000000e+00 -0.0000000000e+00 -2.9556823726e+02 2.9556823726e+02 0.0000000000e+00 0.0000e+00 -1.0000e+00
        6  1    1    2  501    0 +9.6574086328e+00 +2.4901220170e+01 +7.4626217077e+02 7.6651781704e+02 1.7300000000e+02 0.0000e+00 -1.0000e+00
       -6  1    1    2    0  504 -7.8903311897e+01 -1.1607391714e+01 -2.1704114908e+02 2.8878421800e+02 1.7300000000e+02 0.0000e+00 -1.0000e+00
       21  1    1    2  504  505 -3.5690467173e+01 -3.1706937992e+01 +7.9734933665e+00 4.8401611134e+01 0.0000000000e+00 0.0000e+00 -1.0000e+00
       21  1    1    2  505  502 +1.0493637044e+02 +1.8413109536e+01 +2.1813514815e+02 2.4276249155e+02 0.0000000000e+00 0.0000e+00 -1.0000e+00
<mgrwt>
<rscale>  4 0.20506707E+03</rscale>
<asrwt>0</asrwt>
<pdfrwt beam="1">  1       21 0.16167660E+00 0.20506707E+03</pdfrwt>
<pdfrwt beam="2">  1       21 0.45472037E-01 0.20506707E+03</pdfrwt>
<totfact> 0.11205104E+03</totfact>
</mgrwt>
</event>
<event>
 6      1 +2.5168323e+02 1.99942900e+02 7.54677100e-03 1.16820100e-01
       21 -1    0    0  505  502 +0.0000000000e+00 +0.0000000000e+00 +3.9298945396e+02 3.9298945396e+02 0.0000000000e+00 0.0000e+00 -1.0000e+00
       21 -1    0    0  501  503 -0.0000000000e+00 -0.0000000000e+00 -2.6147592024e+02 2.6147592024e+02 0.0000000000e+00 0.0000e+00 1.0000e+00
        6  1    1    2  501    0 -5.1026641578e+01 -3.4599973107e+00 +8.6637819465e+00 1.8060938749e+02 1.7300000000e+02 0.0000e+00 1.0000e+00
       -6  1    1    2    0  502 +6.9853220072e+01 -1.2598684291e+02 +1.8623991791e+02 2.9217539931e+02 1.7300000000e+02 0.0000e+00 -1.0000e+00
       21  1    1    2  504  503 -4.3477107315e+01 +1.2512310803e+02 -7.6976329212e+01 1.5320380636e+02 0.0000000000e+00 0.0000e+00 1.0000e+00
       21  1    1    2  505  504 +2.4650528820e+01 +4.3237321889e+00 +1.3586163078e+01 2.8476781039e+01 0.0000000000e+00 0.0000e+00 -1.0000e+00
<mgrwt>
<rscale>  4 0.19994292E+03</rscale>
<asrwt>0</asrwt>
<pdfrwt beam="1">  1       21 0.60459916E-01 0.19994292E+03</pdfrwt>
<pdfrwt beam="2">  1       21 0.40227065E-01 0.19994292E+03</pdfrwt>
<totfact> 0.15108988E+04</totfact>
</mgrwt>
</event>
<event>
 6      1 +2.5168323e+02 3.52099300e+02 7.54677100e-03 1.04003000e-01
       21 -1    0    0  504  502 +0.0000000000e+00 +0.0000000000e+00 +5.7407547859e+02 5.7407547859e+02 0.0000000000e+00 0.0000e+00 -1.0000e+00
       21 -1    0    0  505  503 -0.0000000000e+00 -0.0000000000e+00 -1.2776063047e+03 1.2776063047e+03 0.0000000000e+00 0.0000e+00 -1.0000e+00
        6  1    1    2  501    0 +1.4102959101e+02 -1.9868561177e+02 -3.9849112196e+02 4.9808582809e+02 1.7300000000e+02 0.0000e+00 -1.0000e+00
       -6  1    1    2    0  503 -2.2008551907e+02 +2.2644319590e+02 +4.5866158667e+02 5.8310685793e+02 1.7300000000e+02 0.0000e+00 -1.0000e+00
       21  1    1    2  504  501 +5.0772036602e+01 -1.0078469111e+01 -6.4832861384e+02 6.5039170256e+02 0.0000000000e+00 0.0000e+00 -1.0000e+00
       21  1    1    2  505  502 +2.8283891465e+01 -1.7679115015e+01 -1.1537267695e+02 1.2009739469e+02 0.0000000000e+00 0.0000e+00 1.0000e+00
<mgrwt>
<rscale>  4 0.35209935E+03</rscale>
<asrwt>0</asrwt>
<pdfrwt beam="1">  1       21 0.88319306E-01 0.35209935E+03</pdfrwt>
<pdfrwt beam="2">  1       21 0.19655481E+00 0.35209935E+03</pdfrwt>
<totfact> 0.13217685E+02</totfact>
</mgrwt>
</event>
<event>
 6      1 +2.5168323e+02 2.48851300e+02 7.54677100e-03 1.17132900e-01
       21 -1    0    0  505  502 +0.0000000000e+00 +0.0000000000e+00 +7.9206384482e+02 7.9206384482e+02 0.0000000000e+00 0.0000e+00 1.0000e+00
       21 -1    0    0  504  503 -0.0000000000e+00 -0.0000000000e+00 -5.0065353637e+02 5.0065353637e+02 0.0000000000e+00 0.0000e+00 -1.0000e+00
        6  1    1    2  501    0 +1.0860951544e+02 -1.5069101527e+02 -3.0789268140e+02 3.9903723158e+02 1.7300000000e+02 0.0000e+00 -1.0000e+00
       -6  1    1    2    0  502 -1.1334900675e+02 +9.2378425547e+01 +5.0159492767e+02 5.5037100423e+02 1.7300000000e+02 0.0000e+00 1.0000e+00
       21  1    1    2  504  501 +3.5478827583e+01 +3.8935281568e+01 -1.1554330237e+02 1.2698408593e+02 0.0000000000e+00 0.0000e+00 -1.0000e+00
       21  1    1    2  505  503 -3.0739336281e+01 +1.9377308157e+01 +2.1325136455e+02 2.1632505946e+02 0.0000000000e+00 0.0000e+00 1.0000e+00
<mgrwt>
<rscale>  4 0.24885126E+03</rscale>
<asrwt>0</asrwt>
<pdfrwt beam="1">  1       21 0.12185598E+00 0.24885126E+03</pdfrwt>
<pdfrwt beam="2">  1       21 0.77023621E-01 0.24885126E+03</pdfrwt>
<totfact> 0.72189188E+02</totfact>
</mgrwt>
</event>
<event>
 6      1 +2.5168323e+02 1.75885800e+02 7.54677100e-03 1.16820100e-01
       21 -1    0    0  505  502 +0.0000000000e+00 +0.0000000000e+00 +5.3360781502e+01 5.3360781502e+01 0.0000000000e+00 0.0000e+00 1.0000e+00
       21 -1    0    0  501  503 -0.0000000000e+00 -0.0000000000e+00 -1.7264737640e+03 1.7264737640e+03 0.0000000000e+00 0.0000e+00 1.0000e+00
        6  1    1    2  501    0 +3.3424045480e+01 +2.0025169788e+01 -1.0766292925e+03 1.0911360170e+03 1.7300000000e+02 0.0000e+00 1.0000e+00
       -6  1    1    2    0  502 +1.0979541943e+01 -2.4280319841e+01 -1.5138185360e+02 2.3142072049e+02 1.7300000000e+02 0.0000e+00 1.0000e+00
       21  1    1    2  504  503 -1.9090818672e+01 +1.1869038320e+01 -4.2071015636e+02 4.2131030024e+02 0.0000000000e+00 0.0000e+00 1.0000e+00
       21  1    1    2  505  504 -2.5312768750e+01 -7.6138882671e+00 -2.4391680059e+01 3.5967507732e+01 0.0000000000e+00 0.0000e+00 1.0000e+00
<mgrwt>
<rscale>  4 0.17588577E+03</rscale>
<asrwt>0</asrwt>
<pdfrwt beam="1">  1       21 0.82093507E-02 0.17588577E+03</pdfrwt>
<pdfrwt beam="2">  1       21 0.26561136E+00 0.17588577E+03</pdfrwt>
<totfact> 0.62978084E+03</totfact>
</mgrwt>
</event>
<event>
 6      1 +2.5168323e+02 2.68133100e+02 7.54677100e-03 1.16820100e-01
       21 -1    0    0  501  502 +0.0000000000e+00 +0.0000000000e+00 +7.0295870042e+02 7.0295870042e+02 0.0000000000e+00 0.0000e+00 -1.0000e+00
       21 -1    0    0  504  503 -0.0000000000e+00 -0.0000000000e+00 -3.8765089053e+02 3.8765089053e+02 0.0000000000e+00 0.0000e+00 1.0000e+00
        6  1    1    2  501    0 +9.7007410348e+01 -2.1373510227e+02 +1.9152499867e+02 3.4886094181e+02 1.7300000000e+02 0.0000e+00 -1.0000e+00
       -6  1    1    2    0  503 +1.2889564095e+01 +2.2200352500e+02 -1.1763725639e+02 3.0531824391e+02 1.7300000000e+02 0.0000e+00 1.0000e+00
       21  1    1    2  504  505 -1.8746593713e+01 -3.3854484587e+01 -8.6689711726e+01 9.4935067397e+01 0.0000000000e+00 0.0000e+00 -1.0000e+00
       21  1    1    2  505  502 -9.1150380730e+01 +2.5586061850e+01 +3.2810977933e+02 3.4149533783e+02 0.0000000000e+00 0.0000e+00 -1.0000e+00
<mgrwt>
<rscale>  4 0.26813314E+03</rscale>
<asrwt>0</asrwt>
<pdfrwt beam="1">  1       21 0.10814749E+00 0.26813314E+03</pdfrwt>
<pdfrwt beam="2">  1       21 0.59638599E-01 0.26813314E+03</pdfrwt>
<totfact> 0.16805961E+03</totfact>
</mgrwt>
</event>
<event>
 6      1 +2.5168323e+02 1.73770600e+02 7.54677100e-03 1.17132900e-01
       21 -1    0    0  505  502 +0.0000000000e+00 +0.0000000000e+00 +1.7677721474e+03 1.7677721474e+03 0.0000000000e+00 0.0000e+00 -1.0000e+00
       21 -1    0    0  504  503 -0.0000000000e+00 -0.0000000000e+00 -3.3760134029e+01 3.3760134029e+01 0.0000000000e+00 0.0000e+00 -1.0000e+00
        6  1    1    2  501    0 +4.5969771952e+00 -3.8449258342e+00 +8.3747598676e+02 8.5517889594e+02 1.7300000000e+02 0.0000e+00 1.0000e+00
       -6  1    1    2    0  502 -2.6199722025e+01 -1.4121510854e+01 +7.0737501134e+02 7.2883074110e+02 1.7300000000e+02 0.0000e+00 -1.0000e+00
       21  1    1    2  504  501 +2.2032350101e+01 -1.9861176274e+01 +5.7047178190e+00 3.0206532064e+01 0.0000000000e+00 0.0000e+00 -1.0000e+00
       21  1    1    2  505  503 -4.2960527029e-01 +3.7827612962e+01 +1.8345629741e+02 1.8731611228e+02 0.0000000000e+00 0.0000e+00 -1.0000e+00
<mgrwt>
<rscale>  4 0.17377059E+03</rscale>
<asrwt>0</asrwt>
<pdfrwt beam="1">  1       21 0.27196487E+00 0.17377059E+03</pdfrwt>
<pdfrwt beam="2">  1       21 0.51938681E-02 0.17377059E+03</pdfrwt>
<totfact> 0.12730953E+04</totfact>
</mgrwt>
</event>
<event>
 6      1 +2.5168323e+02 2.53923400e+02 7.54677100e-03 1.04003000e-01
       21 -1    0    0  504  502 +0.0000000000e+00 +0.0000000000e+00 +1.4372356064e+02 1.4372356064e+02 0.0000000000e+00 0.0000e+00 -1.0000e+00
       21 -1    0    0  505  503 -0.0000000000e+00 -0.0000000000e+00 -1.8329420028e+03 1.8329420028e+03 0.0000000000e+00 0.0000e+00 -1.0000e+00
        6  1    1    2  501    0 +3.7901123572e+00 +1.1546544679e+02 -1.2380999755e+02 2.4208376618e+02 1.7300000000e+02 0.0000e+00 -1.0000e+00
       -6  1    1    2    0  503 -1.3934625618e+02 -1.5131128244e+02 -1.4622984823e+03 1.4867946511e+03 1.7300000000e+02 0.0000e+00 -1.0000e+00
       21  1    1    2  504  501 +3.6893602014e+01 -6.8790614430e+01 -1.6113066111e+01 7.9705190564e+01 0.0000000000e+00 0.0000e+00 -1.0000e+00
       21  1    1    2  505  502 +9.8662541806e+01 +1.0463645008e+02 -8.6996896219e+01 1.6808195558e+02 0.0000000000e+00 0.0000e+00 -1.0000e+00
<mgrwt>
<rscale>  4 0.25392337E+03</rscale>
<asrwt>0</asrwt>
<pdfrwt beam="1">  1       21 0.22111317E-01 0.25392337E+03</pdfrwt>
<pdfrwt beam="2">  1       21 0.28199108E+00 0.25392337E+03</pdfrwt>
<totfact> 0.77137524E+02</totfact>
</mgrwt>
</event>
<event>
 6      1 +2.5168323e+02 3.01221500e+02 7.54677100e-03 1.07240600e-01
       21 -1    0    0  505  502 +0.0000000000e+00 +0.0000000000e+00 +1.5133456716e+03 1.5133456716e+03 0.0000000000e+00 0.0000e+00 -1.0000e+00
       21 -1    0    0  504  503 -0.0000000000e+00 -0.0000000000e+00 -2.5540361022e+02 2.5540361022e+02 0.0000000000e+00 0.0000e+00 -1.0000e+00
        6  1    1    2  501    0 +6.4901414420e+01 -2.6184265884e+02 +6.9933752890e+02 7.6926962172e+02 1.7300000000e+02 0.0000e+00 -1.0000e+00
       -6  1    1    2    0  502 -4.3427966876e+01 +3.4908260027e+01 +4.2702175766e+02 4.6409175434e+02 1.7300000000e+02 0.0000e+00 1.0000e+00
       21  1    1    2  504  501 +3.8810228325e+01 -9.7475560705e+00 +2.5750742517e+02 2.6059800976e+02 0.0000000000e+00 0.0000e+00 -1.0000e+00
       21  1    1    2  505  503 -6.0283675870e+01 +2.3668195489e+02 -1.2592465039e+02 2.7478989596e+02 0.0000000000e+00 0.0000e+00 -1.0000e+00
<mgrwt>
<rscale>  4 0.26421767E+03</rscale>
<asrwt>0</asrwt>
<pdfrwt beam="1">  1       21 0.23282241E+00 0.30122154E+03</pdfrwt>
<pdfrwt beam="2">  1       21 0.39292864E-01 0.30122154E+03</pdfrwt>
<totfact> 0.46996610E+02</totfact>
</mgrwt>
</event>
<event>
 6      1 +2.5168323e+02 2.25481500e+02 7.54677100e-03 1.11910500e-01
       21 -1    0    0  501  502 +0.0000000000e+00 +0.0000000000e+00 +1.3285814933e+03 1.3285814933e+03 0.0000000000e+00 0.0000e+00 -1.0000e+00
       21 -1    0    0  504  503 -0.0000000000e+00 -0.0000000000e+00 -2.1125863509e+02 2.1125863509e+02 0.0000000000e+00 0.0000e+00 -1.0000e+00
        6  1    1    2  501    0 -1.6874116224e+02 +6.5958256168e+01 +9.1088317286e+02 9.4470165978e+02 1.7300000000e+02 0.0000e+00 -1.0000e+00
       -6  1    1    2    0  503 +9.2442381965e+01 -1.0150069360e+01 +3.6119066234e+02 4.1114025886e+02 1.7300000000e+02 0.0000e+00 -1.0000e+00
       21  1    1    2  504  505 +2.9283601245e+01 -1.9066157163e+01 -3.1424394294e+01 4.6995108337e+01 0.0000000000e+00 0.0000e+00 -1.0000e+00
       21  1    1    2  505  502 +4.7015179030e+01 -3.6742029646e+01 -1.2332658269e+02 1.3700310142e+02 0.0000000000e+00 0.0000e+00 -1.0000e+00
<mgrwt>
<rscale>  4 0.22548147E+03</rscale>
<asrwt>0</asrwt>
<pdfrwt beam="1">  1       21 0.20439715E+00 0.22548147E+03</pdfrwt>
<pdfrwt beam="2">  1       21 0.32501329E-01 0.22548147E+03</pdfrwt>
<totfact> 0.11074988E+03</totfact>
</mgrwt>
</event>
<event>
 6      1 +2.5168323e+02 2.00045400e+02 7.54677100e-03 1.17392200e-01
       21 -1    0    0  504  502 +0.0000000000e+00 +0.0000000000e+00 +6.6881857228e+02 6.6881857228e+02 0.0000000000e+00 0.0000e+00 1.0000e+00
       21 -1    0    0  501  503 -0.0000000000e+00 -0.0000000000e+00 -1.4063129212e+02 1.4063129212e+02 0.0000000000e+00 0.0000e+00 -1.0000e+00
        6  1    1    2  501    0 +2.3950679403e+01 +9.9364989870e+01 -1.0551276783e+01 2.0121472535e+02 1.7300000000e+02 0.0000e+00 -1.0000e+00
       -6  1    1    2    0  502 -6.9118630792e+01 -7.5159135334e+01 +5.0840375809e+02 5.4665314596e+02 1.7300000000e+02 0.0000e+00 1.0000e+00
       21  1    1    2  504  505 +1.8298229304e+01 -1.8653183583e+01 +1.5739641555e+01 3.0504143484e+01 0.0000000000e+00 0.0000e+00 -1.0000e+00
       21  1    1    2  505  503 +2.6869722085e+01 -5.5526709539e+00 +1.4595157297e+01 3.1077849607e+01 0.0000000000e+00 0.0000e+00 -1.0000e+00
<mgrwt>
<rscale>  4 0.20004540E+03</rscale>
<asrwt>0</asrwt>
<pdfrwt beam="1">  1       21 0.10289516E+00 0.20004540E+03</pdfrwt>
<pdfrwt beam="2">  1       21 0.21635584E-01 0.20004540E+03</pdfrwt>
<totfact> 0.15203359E+04</totfact>
</mgrwt>
</event>
<event>
 6      1 +2.5168323e+02 2.74880000e+02 7.54677100e-03 1.17132900e-01
       21 -1    0    0  503  502 +0.0000000000e+00 +0.0000000000e+00 +2.6811011321e+02 2.6811011321e+02 0.0000000000e+00 0.0000e+00 -1.0000e+00
       21 -1    0    0  504  503 -0.0000000000e+00 -0.0000000000e+00 -1.8088621943e+03 1.8088621943e+03 0.0000000000e+00 0.0000e+00 1.0000e+00
        6  1    1    2  501    0 +2.8036644295e+01 -1.8279510609e+02 -3.8319294251e+02 4.5931028230e+02 1.7300000000e+02 0.0000e+00 1.0000e+00
       -6  1    1    2    0  505 -6.5545861072e+01 +2.3534590531e+02 -5.3728818619e+02 6.1505410336e+02 1.7300000000e+02 0.0000e+00 1.0000e+00
       21  1    1    2  504  501 +4.2024678622e+01 -1.0145816997e+01 -8.0847646890e+02 8.0963152853e+02 0.0000000000e+00 0.0000e+00 1.0000e+00
       21  1    1    2  505  502 -4.5154618452e+00 -4.2404982216e+01 +1.8820551654e+02 1.9297639329e+02 0.0000000000e+00 0.0000e+00 -1.0000e+00
<mgrwt>
<rscale>  4 0.27488002E+03</rscale>
<asrwt>0</asrwt>
<pdfrwt beam="1">  1       21 0.41247710E-01 0.27488002E+03</pdfrwt>
<pdfrwt beam="2">  1       21 0.27828649E+00 0.27488002E+03</pdfrwt>
<totfact> 0.23280227E+02</totfact>
</mgrwt>
</event>
<event>
 6      1 +2.5168323e+02 1.85561100e+02 7.54677100e-03 1.15942100e-01
       21 -1    0    0  504  502 +0.0000000000e+00 +0.0000000000e+00 +1.9460745093e+02 1.9460745093e+02 0.0000000000e+00 0.0000e+00 -1.0000e+00
       21 -1    0    0  501  503 -0.0000000000e+00 -0.0000000000e+00 -7.0676332631e+02 7.0676332631e+02 0.0000000000e+00 0.0000e+00 -1.0000e+00
        6  1    1    2  501    0 -2.7242416443e+01 -5.2825633488e+01 +9.9682465249e+01 2.0832256403e+02 1.7300000000e+02 0.0000e+00 -1.0000e+00
       -6  1    1    2    0  502 +7.0704744327e+01 +8.0822990461e+01 -2.3011876012e+02 3.0727050040e+02 1.7300000000e+02 0.0000e+00 -1.0000e+00
       21  1    1    2  504  505 -3.2901206089e+01 -9.7616945602e+00 -2.5867601128e+02 2.6094263518e+02 0.0000000000e+00 0.0000e+00 -1.0000e+00
       21  1    1    2  505  503 -1.0561121795e+01 -1.8235662413e+01 -1.2304356923e+02 1.2483507763e+02 0.0000000000e+00 0.0000e+00 -1.0000e+00
<mgrwt>
<rscale>  4 0.18556113E+03</rscale>
<asrwt>0</asrwt>
<pdfrwt beam="1">  1       21 0.29939608E-01 0.18556113E+03</pdfrwt>
<pdfrwt beam="2">  1       21 0.10873282E+00 0.18556113E+03</pdfrwt>
<totfact> 0.72241177E+03</totfact>
</mgrwt>
</event>
<event>
 6      1 +2.5168323e+02 3.11132200e+02 7.54677100e-03 9.87464100e-02
       21 -1    0    0  503  502 +0.0000000000e+00 +0.0000000000e+00 +1.5262523387e+03 1.5262523387e+03 0.0000000000e+00 0.0000e+00 1.0000e+00
       21 -1    0    0  505  503 -0.0000000000e+00 -0.0000000000e+00 -4.2753615798e+02 4.2753615798e+02 0.0000000000e+00 0.0000e+00 1.0000e+00
        6  1    1    2  501    0 +2.9911486154e+02 -6.0126364634e+01 +2.4093285942e+02 4.2551442146e+02 1.7300000000e+02 0.0000e+00 1.0000e+00
       -6  1    1    2    0  504 -7.8592285752e+01 -1.5309749864e+01 +7.7258003794e+02 7.9575124935e+02 1.7300000000e+02 0.0000e+00 1.0000e+00
       21  1    1    2  504  502 -1.3225976198e+02 -1.8514900597e+02 +3.0489869420e+02 3.8044186517e+02 0.0000000000e+00 0.0000e+00 1.0000e+00
       21  1    1    2  505  501 -8.8262813807e+01 +2.6058512047e+02 -2.1969541087e+02 3.5208096067e+02 0.0000000000e+00 0.0000e+00 1.0000e+00
<mgrwt>
<rscale>  4 0.27526885E+03</rscale>
<asrwt>0</asrwt>
<pdfrwt beam="1">  1       21 0.23480805E+00 0.31113223E+03</pdfrwt>
<pdfrwt beam="2">  1       21 0.65774794E-01 0.31113223E+03</pdfrwt>
<totfact> 0.15225291E+02</totfact>
</mgrwt>
</event>
<event>
 6      1 +2.5168323e+02 2.53775900e+02 7.54677100e-03 1.16584500e-01
       21 -1    0    0  504  502 +0.0000000000e+00 +0.0000000000e+00 +5.0765870044e+02 5.0765870044e+02 0.0000000000e+00 0.0000e+00 1.0000e+00
       21 -1    0    0  501  503 -0.0000000000e+00 -0.0000000000e+00 -4.1299038823e+02 4.1299038823e+02 0.0000000000e+00 0.0000e+00 -1.0000e+00
        6  1    1    2  501    0 +1.2103936353e+02 +1.6585912471e+02 +7.9810309860e+01 2.8010437757e+02 1.7300000000e+02 0.0000e+00 1.0000e+00
       -6  1    1    2    0  505 +1.4272822384e+02 -1.8915068694e+02 -1.0141171525e+02 3.1042336291e+02 1.7300000000e+02 0.0000e+00 1.0000e+00
       21  1    1    2  504  503 -1.6877501832e+02 -3.4084960027e+01 +3.9545097546e+00 1.7222784170e+02 0.0000000000e+00 0.0000e+00 1.0000e+00
       21  1    1    2  505  502 -9.4992569052e+01 +5.7376522249e+01 +1.1231520784e+02 1.5789350650e+02 0.0000000000e+00 0.0000e+00 1.0000e+00
<mgrwt>
<rscale>  4 0.25377593E+03</rscale>
<asrwt>0</asrwt>
<pdfrwt beam="1">  1       21 0.78101338E-01 0.25377593E+03</pdfrwt>
<pdfrwt beam="2">  1       21 0.63536983E-01 0.25377593E+03</pdfrwt>
<totfact> 0.31759958E+03</totfact>
</mgrwt>
</event>
<event>
 6      1 +2.5168323e+02 2.00535800e+02 7.54677100e-03 1.03924000e-01
       21 -1    0    0  503  502 +0.0000000000e+00 +0.0000000000e+00 +1.6401237494e+03 1.6401237494e+03 0.0000000000e+00 0.0000e+00 1.0000e+00
       21 -1    0    0  504  503 -0.0000000000e+00 -0.0000000000e+00 -9.9578040451e+01 9.9578040451e+01 0.0000000000e+00 0.0000e+00 1.0000e+00
        6  1    1    2  501    0 +7.2368080485e+01 +4.6610796309e+01 +1.1632493506e+03 1.1791894492e+03 1.7300000000e+02 0.0000e+00 1.0000e+00
       -6  1    1    2    0  505 -8.7031710627e+01 +6.5475214398e+01 +4.6763527651e+01 2.0970777256e+02 1.7300000000e+02 0.0000e+00 1.0000e+00
       21  1    1    2  504  501 +3.3842856503e+00 -3.2216685774e+01 +1.4364979537e+02 1.4725702680e+02 0.0000000000e+00 0.0000e+00 -1.0000e+00
       21  1    1    2  505  502 +1.1279344491e+01 -7.9869324932e+01 +1.8688303535e+02 2.0354754133e+02 0.0000000000e+00 0.0000e+00 1.0000e+00
<mgrwt>
<rscale>  4 0.20053585E+03</rscale>
<asrwt>0</asrwt>
<pdfrwt beam="1">  1       21 0.25232671E+00 0.20053585E+03</pdfrwt>
<pdfrwt beam="2">  1       21 0.15319700E-01 0.20053585E+03</pdfrwt>
<totfact> 0.24109718E+03</totfact>
</mgrwt>
</event>
<event>
 6      1 +2.5168323e+02 2.18480000e+02 7.54677100e-03 1.15942100e-01
       21 -1    0    0  503  502 +0.0000000000e+00 +0.0000000000e+00 +1.9848567160e+02 1.9848567160e+02 0.0000000000e+00 0.0000e+00 1.0000e+00
       21 -1    0    0  501  503 -0.0000000000e+00 -0.0000000000e+00 -1.3405783143e+03 1.3405783143e+03 0.0000000000e+00 0.0000e+00 -1.0000e+00
        6  1    1    2  501    0 +7.1390880699e+01 -1.5976275460e+02 -1.3692181310e+01 2.4644932833e+02 1.7300000000e+02 0.0000e+00 -1.0000e+00
       -6  1    1    2    0  505 +5.6811847951e+01 +8.7657624157e+01 -1.5401368390e+02 2.5408789812e+02 1.7300000000e+02 0.0000e+00 1.0000e+00
       21  1    1    2  504  502 -1.8456160732e+02 -7.6809671065e+01 -5.5895515739e+02 5.9362747615e+02 0.0000000000e+00 0.0000e+00 -1.0000e+00
       21  1    1    2  505  504 +5.6358878668e+01 +1.4891480151e+02 -4.1543162006e+02 4.4489928328e+02 0.0000000000e+00 0.0000e+00 -1.0000e+00
<mgrwt>
<rscale>  4 0.21847998E+03</rscale>
<asrwt>0</asrwt>
<pdfrwt beam="1">  1       21 0.30536258E-01 0.21847998E+03</pdfrwt>
<pdfrwt beam="2">  1       21 0.20624281E+00 0.21847998E+03</pdfrwt>
<totfact> 0.12271341E+03</totfact>
</mgrwt>
</event>
<event>
 6      1 +2.5168323e+02 1.96130000e+02 7.54677100e-03 1.17132900e-01
       21 -1    0    0  503  502 +0.0000000000e+00 +0.0000000000e+00 +4.4195154592e+02 4.4195154592e+02 0.0000000000e+00 0.0000e+00 -1.0000e+00
       21 -1    0    0  504  503 -0.0000000000e+00 -0.0000000000e+00 -3.0095662980e+02 3.0095662980e+02 0.0000000000e+00 0.0000e+00 -1.0000e+00
        6  1    1    2  501    0 +5.8740888116e+01 +3.8948500956e+01 -6.8376069554e+01 1.9892653054e+02 1.7300000000e+02 0.0000e+00 -1.0000e+00
       -6  1    1    2    0  505 -1.5319735390e+02 +2.5348349573e+01 +2.0702462785e+01 2.3338714625e+02 1.7300000000e+02 0.0000e+00 -1.0000e+00
       21  1    1    2  504  501 +1.1573845769e+02 -7.5567292635e+01 +1.9349563689e+01 1.3957152976e+02 0.0000000000e+00 0.0000e+00 -1.0000e+00
       21  1    1    2  505  502 -2.1281991904e+01 +1.1270442106e+01 +1.6931895920e+02 1.7102296919e+02 0.0000000000e+00 0.0000e+00 -1.0000e+00
<mgrwt>
<rscale>  4 0.19613001E+03</rscale>
<asrwt>0</asrwt>
<pdfrwt beam="1">  1       21 0.67992545E-01 0.19613001E+03</pdfrwt>
<pdfrwt beam="2">  1       21 0.46301020E-01 0.19613001E+03</pdfrwt>
<totfact> 0.88057867E+03</totfact>
</mgrwt>
</event>
<event>
 6      1 +2.5168323e+02 1.80028600e+02 7.54677100e-03 1.03924000e-01
       21 -1    0    0  504  502 +0.0000000000e+00 +0.0000000000e+00 +4.0424014525e+02 4.0424014525e+02 0.0000000000e+00 0.0000e+00 -1.0000e+00
       21 -1    0    0  501  503 -0.0000000000e+00 -0.0000000000e+00 -4.3302772520e+02 4.3302772520e+02 0.0000000000e+00 0.0000e+00 -1.0000e+00
        6  1    1    2  501    0 +8.0243259492e+01 -1.4704046608e+02 +1.0432902510e+02 2.6243746843e+02 1.7300000000e+02 0.0000e+00 1.0000e+00
       -6  1    1    2    0  505 -1.7407043739e+01 +2.9967668074e+01 -3.0584160536e+02 3.5308519350e+02 1.7300000000e+02 0.0000e+00 -1.0000e+00
       21  1    1    2  504  503 -1.1317736725e+01 +3.3878924820e+01 +2.1713827714e+01 4.1801471572e+01 0.0000000000e+00 0.0000e+00 -1.0000e+00
       21  1    1    2  505  502 -5.1518479028e+01 +8.3193873190e+01 +1.5101117260e+02 1.7994373695e+02 0.0000000000e+00 0.0000e+00 -1.0000e+00
<mgrwt>
<rscale>  4 0.18002857E+03</rscale>
<asrwt>0</asrwt>
<pdfrwt beam="1">  1       21 0.62190791E-01 0.18002857E+03</pdfrwt>
<pdfrwt beam="2">  1       21 0.66619650E-01 0.18002857E+03</pdfrwt>
<totfact> 0.50043245E+03</totfact>
</mgrwt>
</event>
<event>
 6      1 +2.5168323e+02 2.26335400e+02 7.54677100e-03 1.15942100e-01
       21 -1    0    0  504  502 +0.0000000000e+00 +0.0000000000e+00 +4.0185484159e+02 4.0185484159e+02 0.0000000000e+00 0.0000e+00 1.0000e+00
       21 -1    0    0  501  503 -0.0000000000e+00 -0.0000000000e+00 -2.9697496372e+03 2.9697496372e+03 0.0000000000e+00 0.0000e+00 -1.0000e+00
        6  1    1    2  501    0 +8.2027997706e+01 +2.2634027944e+02 -3.4127059203e+02 4.5205434572e+02 1.7300000000e+02 0.0000e+00 -1.0000e+00
       -6  1    1    2    0  502 -1.3817859769e+02 -4.3604526420e+01 +3.0541218482e+02 3.7973712252e+02 1.7300000000e+02 0.0000e+00 1.0000e+00
       21  1    1    2  504  505 +6.0868324919e+01 -1.4454555342e+02 -2.1926391007e+03 2.1982412507e+03 0.0000000000e+00 0.0000e+00 -1.0000e+00
       21  1    1    2  505  503 -4.7177249350e+00 -3.8190199603e+01 -3.3939728768e+02 3.4157175990e+02 0.0000000000e+00 0.0000e+00 -1.0000e+00
<mgrwt>
<rscale>  4 0.22633539E+03</rscale>
<asrwt>0</asrwt>
<pdfrwt beam="1">  1       21 0.61823821E-01 0.22633539E+03</pdfrwt>
<pdfrwt beam="2">  1       21 0.45688457E+00 0.22633539E+03</pdfrwt>
<totfact> 0.84980396E+00</totfact>
</mgrwt>
</event>
<event>
 6      1 +2.5168323e+02 2.39766500e+02 7.54677100e-03 1.06249800e-01
       21 -1    0    0  504  502 +0.0000000000e+00 +0.0000000000e+00 +4.8451031268e+02 4.8451031268e+02 0.0000000000e+00 0.0000e+00 1.0000e+00
       21 -1    0    0  501  503 -0.0000000000e+00 -0.0000000000e+00 -2.9546523461e+02 2.9546523461e+02 0.0000000000e+00 0.0000e+00 1.0000e+00
        6  1    1    2  501    0 +1.4005401231e+02 +1.6799169106e+02 +5.1368672689e+01 2.8355612348e+02 1.7300000000e+02 0.0000e+00 1.0000e+00
       -6  1    1    2    0  505 -1.2451518994e+01 -1.5122170834e+02 -7.7456687274e+01 2.4279947241e+02 1.7300000000e+02 0.0000e+00 1.0000e+00
       21  1    1    2  504  503 -3.4309130230e+01 -1.7531888150e+01 +4.2324466011e+01 5.7234988795e+01 0.0000000000e+00 0.0000e+00 -1.0000e+00
       21  1    1    2  505  502 -9.3293363081e+01 +7.6190543175e-01 +1.7280862665e+02 1.9638496261e+02 0.0000000000e+00 0.0000e+00 1.0000e+00
<mgrwt>
<rscale>  4 0.23976650E+03</rscale>
<asrwt>0</asrwt>
<pdfrwt beam="1">  1       21 0.74540048E-01 0.23976650E+03</pdfrwt>
<pdfrwt beam="2">  1       21 0.45456190E-01 0.23976650E+03</pdfrwt>
<totfact> 0.72465235E+03</totfact>
</mgrwt>
</event>
<event>
 6      1 +2.5168323e+02 2.69898800e+02 7.54677100e-03 1.16820100e-01
       21 -1    0    0  501  502 +0.0000000000e+00 +0.0000000000e+00 +2.9784992168e+02 2.9784992168e+02 0.0000000000e+00 0.0000e+00 1.0000e+00
       21 -1    0    0  504  503 -0.0000000000e+00 -0.0000000000e+00 -6.0942475098e+02 6.0942475098e+02 0.0000000000e+00 0.0000e+00 1.0000e+00
        6  1    1    2  501    0 -5.6547132425e+01 -2.2236036319e+02 -3.8066548577e+01 2.8986164186e+02 1.7300000000e+02 0.0000e+00 1.0000e+00
       -6  1    1    2    0  503 +1.0830626422e+02 +1.6311403496e+02 +1.8619522826e+01 2.6193915687e+02 1.7300000000e+02 0.0000e+00 1.0000e+00
       21  1    1    2  504  505 +1.8486497045e+01 +3.4048070328e+01 -2.7653257080e+02 2.7923338693e+02 0.0000000000e+00 0.0000e+00 1.0000e+00
       21  1    1    2  505  502 -7.0245628842e+01 +2.5198257897e+01 -1.5595232756e+01 7.6240486995e+01 0.0000000000e+00 0.0000e+00 1.0000e+00
<mgrwt>
<rscale>  4 0.26989876E+03</rscale>
<asrwt>0</asrwt>
<pdfrwt beam="1">  1       21 0.45823066E-01 0.26989876E+03</pdfrwt>
<pdfrwt beam="2">  1       21 0.93757652E-01 0.26989876E+03</pdfrwt>
<totfact> 0.41314431E+03</totfact>
</mgrwt>
</event>
<event>
 6      1 +2.5168323e+02 2.26178200e+02 7.54677100e-03 1.17132900e-01
       21 -1    0    0  505  502 +0.0000000000e+00 +0.0000000000e+00 +7.2664614161e+02 7.2664614161e+02 0.0000000000e+00 0.0000e+00 -1.0000e+00
       21 -1    0    0  504  503 -0.0000000000e+00 -0.0000000000e+00 -1.2130677114e+02 1.2130677114e+02 0.0000000000e+00 0.0000e+00 -1.0000e+00
        6  1    1    2  501    0 +1.7269343997e+01 -1.6001941877e+02 +1.5232381112e+02 2.8113339905e+02 1.7300000000e+02 0.0000e+00 -1.0000e+00
       -6  1    1    2    0  502 +1.5128336721e+01 +1.2976574657e+02 +1.9935617477e+02 2.9451638320e+02 1.7300000000e+02 0.0000e+00 -1.0000e+00
       21  1    1    2  504  501 -2.2647763716e+01 +1.7538995229e+00 +6.9403572513e+00 2.3752177240e+01 0.0000000000e+00 0.0000e+00 -1.0000e+00
       21  1    1    2  505  503 -9.7499170013e+00 +2.8499772672e+01 +2.4671902732e+02 2.4855095326e+02 0.0000000000e+00 0.0000e+00 -1.0000e+00
<mgrwt>
<rscale>  4 0.22617819E+03</rscale>
<asrwt>0</asrwt>
<pdfrwt beam="1">  1       21 0.11179171E+00 0.22617819E+03</pdfrwt>
<pdfrwt beam="2">  1       21 0.18662581E-01 0.22617819E+03</pdfrwt>
<totfact> 0.16147072E+04</totfact>
</mgrwt>
</event>
<event>
 6      1 +2.5168323e+02 2.16164000e+02 7.54677100e-03 1.06249800e-01
       21 -1    0    0  504  502 +0.0000000000e+00 +0.0000000000e+00 +2.3096822614e+03 2.3096822614e+03 0.0000000000e+00 0.0000e+00 1.0000e+00
       21 -1    0    0  501  503 -0.0000000000e+00 -0.0000000000e+00 -1.0407610801e+02 1.0407610801e+02 0.0000000000e+00 0.0000e+00 1.0000e+00
        6  1    1    2  501    0 -6.3706214586e+01 -1.4471872138e+02 +1.5109715880e+02 2.7885720628e+02 1.7300000000e+02 0.0000e+00 1.0000e+00
       -6  1    1    2    0  505 -4.1643083118e+01 +1.0528440739e+02 +2.6040857065e+02 3.3250650592e+02 1.7300000000e+02 0.0000e+00 -1.0000e+00
       21  1    1    2  504  503 -2.4520682211e+00 +2.3667537395e+01 +1.0587412798e+03 1.0590086225e+03 0.0000000000e+00 0.0000e+00 1.0000e+00
       21  1    1    2  505  502 +1.0780136592e+02 +1.5766776601e+01 +7.3535914410e+02 7.4338603467e+02 0.0000000000e+00 0.0000e+00 1.0000e+00
<mgrwt>
<rscale>  4 0.21616397E+03</rscale>
<asrwt>0</asrwt>
<pdfrwt beam="1">  1       21 0.35533569E+00 0.21616397E+03</pdfrwt>
<pdfrwt beam="2">  1       21 0.16011711E-01 0.21616397E+03</pdfrwt>
<totfact> 0.54710424E+02</totfact>
</mgrwt>
</event>
<event>
 6      1 +2.5168323e+02 1.78385600e+02 7.54677100e-03 1.06249800e-01
       21 -1    0    0  504  502 +0.0000000000e+00 +0.0000000000e+00 +2.3393156485e+03 2.3393156485e+03 0.0000000000e+00 0.0000e+00 1.0000e+00
       21 -1    0    0  501  503 -0.0000000000e+00 -0.0000000000e+00 -2.4631292555e+01 2.4631292555e+01 0.0000000000e+00 0.0000e+00 1.0000e+00
        6  1    1    2  501    0 -2.7464866588e+01 +2.6694960316e+01 +5.7281052272e+02 5.9958972201e+02 1.7300000000e+02 0.0000e+00 -1.0000e+00
       -6  1    1    2    0  505 +7.0530260536e+01 +3.6502566772e+01 +9.9170047728e+02 1.0098048285e+03 1.7300000000e+02 0.0000e+00 -1.0000e+00
       21  1    1    2  504  503 -4.0873253551e+01 -3.9505146093e+01 +4.8725444915e+02 4.9055904603e+02 0.0000000000e+00 0.0000e+00 1.0000e+00
       21  1    1    2  505  502 -2.1921403974e+00 -2.3692380995e+01 +2.6291890684e+02 2.6399334456e+02 0.0000000000e+00 0.0000e+00 1.0000e+00
<mgrwt>
<rscale>  4 0.17838558E+03</rscale>
<asrwt>0</asrwt>
<pdfrwt beam="1">  1       21 0.35989454E+00 0.17838558E+03</pdfrwt>
<pdfrwt beam="2">  1       21 0.37894315E-02 0.17838558E+03</pdfrwt>
<totfact> 0.66781302E+03</totfact>
</mgrwt>
</event>
<event>
 6      1 +2.5168323e+02 1.85862500e+02 7.54677100e-03 1.17132900e-01
       21 -1    0    0  505  502 +0.0000000000e+00 +0.0000000000e+00 +3.7234815851e+02 3.7234815851e+02 0.0000000000e+00 0.0000e+00 -1.0000e+00
       21 -1    0    0  504  503 -0.0000000000e+00 -0.0000000000e+00 -1.2416833000e+03 1.2416833000e+03 0.0000000000e+00 0.0000e+00 -1.0000e+00
        6  1    1    2  501    0 -5.1965391854e+01 +3.7168430359e+01 -1.0688095718e+03 1.0846035197e+03 1.7300000000e+02 0.0000e+00 -1.0000e+00
       -6  1    1    2    0  502 +8.6603407060e+01 -5.6555462629e+01 -7.8054026323e+01 2.1614833215e+02 1.7300000000e+02 0.0000e+00 -1.0000e+00
       21  1    1    2  504  501 -1.1177449166e+01 -1.7307694797e+01 -9.6967837211e+00 2.2771018501e+01 0.0000000000e+00 0.0000e+00 1.0000e+00
       21  1    1    2  505  503 -2.3460566040e+01 +3.6694727067e+01 +2.8722524030e+02 2.9050858820e+02 0.0000000000e+00 0.0000e+00 -1.0000e+00
<mgrwt>
<rscale>  4 0.18586252E+03</rscale>
<asrwt>0</asrwt>
<pdfrwt beam="1">  1       21 0.57284332E-01 0.18586252E+03</pdfrwt>
<pdfrwt beam="2">  1       21 0.19102820E+00 0.18586252E+03</pdfrwt>
<totfact> 0.44307869E+02</totfact>
</mgrwt>
</event>
<event>
 6      1 +2.5168323e+02 2.19589100e+02 7.54677100e-03 1.16820100e-01
       21 -1    0    0  505  502 +0.0000000000e+00 +0.0000000000e+00 +1.0158579005e+03 1.0158579005e+03 0.0000000000e+00 0.0000e+00 1.0000e+00
       21 -1    0    0  504  503 -0.0000000000e+00 -0.0000000000e+00 -6.1911056521e+01 6.1911056521e+01 0.0000000000e+00 0.0000e+00 -1.0000e+00
        6  1    1    2  501    0 -1.2007756804e+02 +9.9786507770e+01 +5.2341517149e+02 5.7294712777e+02 1.7300000000e+02 0.0000e+00 -1.0000e+00
       -6  1    1    2    0  503 +9.1161470583e+01 -6.9411897657e+01 +3.3338564916e+02 3.9268742827e+02 1.7300000000e+02 0.0000e+00 1.0000e+00
       21  1    1    2  504  502 +2.8640630576e+01 -3.7576553028e+00 +4.3034922348e+01 5.1830591687e+01 0.0000000000e+00 0.0000e+00 1.0000e+00
       21  1    1    2  505  501 +2.7546688449e-01 -2.6616954810e+01 +5.4111100981e+01 6.0303809289e+01 0.0000000000e+00 0.0000e+00 -1.0000e+00
<mgrwt>
<rscale>  4 0.21958911E+03</rscale>
<asrwt>0</asrwt>
<pdfrwt beam="1">  1       21 0.15628582E+00 0.21958911E+03</pdfrwt>
<pdfrwt beam="2">  1       21 0.95247787E-02 0.21958911E+03</pdfrwt>
<totfact> 0.23296639E+04</totfact>
</mgrwt>
</event>
<event>
 6      1 +2.5168323e+02 1.90919900e+02 7.54677100e-03 1.16820100e-01
       21 -1    0    0  504  502 +0.0000000000e+00 +0.0000000000e+00 +1.7101830024e+02 1.7101830024e+02 0.0000000000e+00 0.0000e+00 1.0000e+00
       21 -1    0    0  501  503 -0.0000000000e+00 -0.0000000000e+00 -4.8676884274e+02 4.8676884274e+02 0.0000000000e+00 0.0000e+00 1.0000e+00
        6  1    1    2  501    0 -9.3944276493e+01 +3.2155090303e+01 -6.0928303945e+01 2.0856829850e+02 1.7300000000e+02 0.0000e+00 1.0000e+00
       -6  1    1    2    0  505 +6.4360375043e+01 -3.9601047359e+00 -3.8793582331e+01 1.8865810965e+02 1.7300000000e+02 0.0000e+00 1.0000e+00
       21  1    1    2  504  503 +1.9684635059e+01 -3.8995424842e+00 -2.2997536190e+02 2.3084921133e+02 0.0000000000e+00 0.0000e+00 -1.0000e+00
       21  1    1    2  505  502 +9.8992663911e+00 -2.4295443083e+01 +1.3946705679e+01 2.9711523505e+01 0.0000000000e+00 0.0000e+00 -1.0000e+00
<mgrwt>
<rscale>  4 0.19091993E+03</rscale>
<asrwt>0</asrwt>
<pdfrwt beam="1">  1       21 0.26310508E-01 0.19091993E+03</pdfrwt>
<pdfrwt beam="2">  1       21 0.74887514E-01 0.19091993E+03</pdfrwt>
<totfact> 0.21934696E+04</totfact>
</mgrwt>
</event>
<event>
 6      1 +2.5168323e+02 3.04100500e+02 7.54677100e-03 1.07240600e-01
       21 -1    0    0  505  502 +0.0000000000e+00 +0.0000000000e+00 +6.0758242167e+02 6.0758242167e+02 0.0000000000e+00 0.0000e+00 1.0000e+00
       21 -1    0    0  504  503 -0.0000000000e+00 -0.0000000000e+00 -4.3160006981e+02 4.3160006981e+02 0.0000000000e+00 0.0000e+00 1.0000e+00
        6  1    1    2  501    0 -3.0278785953e+02 -9.8240543931e+01 +3.1458912844e+02 4.7981977042e+02 1.7300000000e+02 0.0000e+00 1.0000e+00
       -6  1    1    2    0  502 +1.3272843284e+02 +1.2082151210e+02 +5.8578470634e+01 2.5607637902e+02 1.7300000000e+02 0.0000e+00 -1.0000e+00
       21  1    1    2  504  501 -5.2681857598e+00 -4.6445789223e+01 -1.4460977164e+01 4.8929387675e+01 0.0000000000e+00 0.0000e+00 -1.0000e+00
       21  1    1    2  505  503 +1.7532761246e+02 +2.3864821052e+01 -1.8272427004e+02 2.5435695437e+02 0.0000000000e+00 0.0000e+00 1.0000e+00
<mgrwt>
<rscale>  4 0.30410048E+03</rscale>
<asrwt>0</asrwt>
<pdfrwt beam="1">  1       21 0.93474219E-01 0.30410048E+03</pdfrwt>
<pdfrwt beam="2">  1       21 0.66400011E-01 0.30410048E+03</pdfrwt>
<totfact> 0.18442282E+03</totfact>
</mgrwt>
</event>
<event>
 6      1 +2.5168323e+02 1.74316100e+02 7.54677100e-03 1.16820100e-01
       21 -1    0    0  504  502 +0.0000000000e+00 +0.0000000000e+00 +1.3994589820e+02 1.3994589820e+02 0.0000000000e+00 0.0000e+00 1.0000e+00
       21 -1    0    0  501  503 -0.0000000000e+00 -0.0000000000e+00 -5.4126262547e+02 5.4126262547e+02 0.0000000000e+00 0.0000e+00 1.0000e+00
        6  1    1    2  501    0 +1.4290123964e+01 +1.5166162909e+01 -1.8671187280e+02 2.5539096222e+02 1.7300000000e+02 0.0000e+00 1.0000e+00
       -6  1    1    2    0  505 +2.1743052658e+01 -7.4564917675e-01 -2.7264924805e+01 1.7648142241e+02 1.7300000000e+02 0.0000e+00 -1.0000e+00
       21  1    1    2  504  503 +1.8051912195e+01 +2.9711589878e+01 -1.7503498822e+02 1.7845418798e+02 0.0000000000e+00 0.0000e+00 1.0000e+00
       21  1    1    2  505  502 -5.4085088817e+01 -4.4132103611e+01 -1.2304941439e+01 7.0881951055e+01 0.0000000000e+00 0.0000e+00 -1.0000e+00
<mgrwt>
<rscale>  4 0.17431612E+03</rscale>
<asrwt>0</asrwt>
<pdfrwt beam="1">  1       21 0.21530138E-01 0.17431612E+03</pdfrwt>
<pdfrwt beam="2">  1       21 0.83271174E-01 0.17431612E+03</pdfrwt>
<totfact> 0.25517634E+04</totfact>
</mgrwt>
</event>
<event>
 6      1 +2.5168323e+02 1.81520200e+02 7.54677100e-03 1.15942100e-01
       21 -1    0    0  504  502 +0.0000000000e+00 +0.0000000000e+00 +9.5701085381e+02 9.5701085381e+02 0.0000000000e+00 0.0000e+00 1.0000e+00
       21 -1    0    0  501  503 -0.0000000000e+00 -0.0000000000e+00 -5.5711956027e+02 5.5711956027e+02 0.0000000000e+00 0.0000e+00 -1.0000e+00
        6  1    1    2  501    0 -5.9795499537e+01 -6.7068376448e+01 +4.5427264488e+01 2.0016569447e+02 1.7300000000e+02 0.0000e+00 -1.0000e+00
       -6  1    1    2    0  502 +4.3509613234e+00 -7.0429420260e+01 +8.1145772257e+02 8.3268953976e+02 1.7300000000e+02 0.0000e+00 1.0000e+00
       21  1    1    2  504  505 +4.9204935035e+01 +1.1736646436e+02 -3.5487806550e+02 3.7700723330e+02 0.0000000000e+00 0.0000e+00 -1.0000e+00
       21  1    1    2  505  503 +6.2396031784e+00 +2.0131332353e+01 -1.0211562802e+02 1.0426794654e+02 0.0000000000e+00 0.0000e+00 -1.0000e+00
<mgrwt>
<rscale>  4 0.18152022E+03</rscale>
<asrwt>0</asrwt>
<pdfrwt beam="1">  1       21 0.14723244E+00 0.18152022E+03</pdfrwt>
<pdfrwt beam="2">  1       21 0.85710701E-01 0.18152022E+03</pdfrwt>
<totfact> 0.37404149E+02</totfact>
</mgrwt>
</event>
<event>
 6      1 +2.5168323e+02 1.75797400e+02 7.54677100e-03 1.12068800e-01
       21 -1    0    0  504  502 +0.0000000000e+00 +0.0000000000e+00 +2.9511052733e+01 2.9511052733e+01 0.0000000000e+00 0.0000e+00 -1.0000e+00
       21 -1    0    0  502  503 -0.0000000000e+00 -0.0000000000e+00 -2.3221627708e+03 2.3221627708e+03 0.0000000000e+00 0.0000e+00 -1.0000e+00
        6  1    1    2  501    0 +4.6850772705e+01 +3.8390771839e+01 -5.5684741552e+02 5.8623961862e+02 1.7300000000e+02 0.0000e+00 1.0000e+00
       -6  1    1    2    0  505 +8.4500506828e+00 -1.0194791606e+00 -7.0769897023e+02 7.2858717746e+02 1.7300000000e+02 0.0000e+00 -1.0000e+00
       21  1    1    2  504  501 -4.8489489755e+01 -6.4598044395e+01 -3.9781556101e+02 4.0593270198e+02 0.0000000000e+00 0.0000e+00 -1.0000e+00
       21  1    1    2  505  503 -6.8113336328e+00 +2.7226751716e+01 -6.3028977126e+02 6.3091432542e+02 0.0000000000e+00 0.0000e+00 -1.0000e+00
<mgrwt>
<rscale>  4 0.17579744E+03</rscale>
<asrwt>0</asrwt>
<pdfrwt beam="1">  1       21 0.45401620E-02 0.17579744E+03</pdfrwt>
<pdfrwt beam="2">  1       21 0.35725580E+00 0.17579744E+03</pdfrwt>
<totfact> 0.51313221E+03</totfact>
</mgrwt>
</event>
<event>
 6      1 +2.5168323e+02 1.83800500e+02 7.54677100e-03 1.16820100e-01
       21 -1    0    0  505  502 +0.0000000000e+00 +0.0000000000e+00 +8.7328206806e+02 8.7328206806e+02 0.0000000000e+00 0.0000e+00 -1.0000e+00
       21 -1    0    0  501  503 -0.0000000000e+00 -0.0000000000e+00 -3.8897446551e+02 3.8897446551e+02 0.0000000000e+00 0.0000e+00 1.0000e+00
        6  1    1    2  501    0 -7.2045370400e+01 +1.9713883024e+01 -2.0877238696e+02 2.8123670126e+02 1.7300000000e+02 0.0000e+00 1.0000e+00
       -6  1    1    2    0  502 +3.5831485110e+01 -6.7325800728e+00 -1.4095173633e+01 1.7736092264e+02 1.7300000000e+02 0.0000e+00 -1.0000e+00
       21  1    1    2  504  503 +9.6001932764e+00 +2.4743885885e+01 -4.3828079882e+01 5.1237917461e+01 0.0000000000e+00 0.0000e+00 1.0000e+00
       21  1    1    2  505  504 +2.6613692014e+01 -3.7725188835e+01 +7.5100324303e+02 7.5242099221e+02 0.0000000000e+00 0.0000e+00 -1.0000e+00
<mgrwt>
<rscale>  4 0.18380045E+03</rscale>
<asrwt>0</asrwt>
<pdfrwt beam="1">  1       21 0.13435109E+00 0.18380045E+03</pdfrwt>
<pdfrwt beam="2">  1       21 0.59842225E-01 0.18380045E+03</pdfrwt>
<totfact> 0.10459545E+03</totfact>
</mgrwt>
</event>
<event>
 6      1 +2.5168323e+02 3.29922700e+02 7.54677100e-03 1.07064900e-01
       21 -1    0    0  505  502 +0.0000000000e+00 +0.0000000000e+00 +6.0705912613e+02 6.0705912613e+02 0.0000000000e+00 0.0000e+00 -1.0000e+00
       21 -1    0    0  504  503 -0.0000000000e+00 -0.0000000000e+00 -4.1694938142e+02 4.1694938142e+02 0.0000000000e+00 0.0000e+00 1.0000e+00
        6  1    1    2  501    0 -1.4011171586e+01 -2.8926283657e+02 +5.4411652232e+01 3.4170005772e+02 1.7300000000e+02 0.0000e+00 -1.0000e+00
       -6  1    1    2    0  503 -4.8232987017e+01 +2.7447426780e+02 -1.4045744840e+02 3.5681905713e+02 1.7300000000e+02 0.0000e+00 1.0000e+00
       21  1    1    2  504  502 +6.0334215617e+01 +7.9287875960e+01 +1.1654221944e+02 1.5332603745e+02 0.0000000000e+00 0.0000e+00 -1.0000e+00
       21  1    1    2  505  501 +1.9099429856e+00 -6.4499307195e+01 +1.5961332143e+02 1.7216335525e+02 0.0000000000e+00 0.0000e+00 -1.0000e+00
<mgrwt>
<rscale>  4 0.32992274E+03</rscale>
<asrwt>0</asrwt>
<pdfrwt beam="1">  1       21 0.93393711E-01 0.32992274E+03</pdfrwt>
<pdfrwt beam="2">  1       21 0.64146059E-01 0.32992274E+03</pdfrwt>
<totfact> 0.19657576E+03</totfact>
</mgrwt>
</event>
<event>
 6      1 +2.5168323e+02 1.77553600e+02 7.54677100e-03 1.17132900e-01
       21 -1    0    0  505  502 +0.0000000000e+00 +0.0000000000e+00 +1.6293717061e+03 1.6293717061e+03 0.0000000000e+00 0.0000e+00 -1.0000e+00
       21 -1    0    0  504  503 -0.0000000000e+00 -0.0000000000e+00 -2.3001705523e+02 2.3001705523e+02 0.0000000000e+00 0.0000e+00 -1.0000e+00
        6  1    1    2  501    0 +6.8874626707e+00 +9.8950597867e+01 +4.0287048843e+02 4.4952451369e+02 1.7300000000e+02 0.0000e+00 1.0000e+00
       -6  1    1    2    0  502 +4.2422221308e+01 +3.6550782285e+01 +6.3767541787e+01 1.9269380875e+02 1.7300000000e+02 0.0000e+00 -1.0000e+00
       21  1    1    2  504  501 +1.9931212859e+01 -1.0229668632e+01 -1.3654529774e+02 1.3837094240e+02 0.0000000000e+00 0.0000e+00 -1.0000e+00
       21  1    1    2  505  503 -6.9240896838e+01 -1.2527171152e+02 +1.0692619183e+03 1.0787994964e+03 0.0000000000e+00 0.0000e+00 -1.0000e+00
<mgrwt>
<rscale>  4 0.17755364E+03</rscale>
<asrwt>0</asrwt>
<pdfrwt beam="1">  1       21 0.25067256E+00 0.17755364E+03</pdfrwt>
<pdfrwt beam="2">  1       21 0.35387240E-01 0.17755364E+03</pdfrwt>
<totfact> 0.51797539E+02</totfact>
</mgrwt>
</event>
<event>
 6      1 +2.5168323e+02 1.88463700e+02 7.54677100e-03 1.04003000e-01
       21 -1    0    0  504  502 +0.0000000000e+00 +0.0000000000e+00 +3.8770281700e+02 3.8770281700e+02 0.0000000000e+00 0.0000e+00 1.0000e+00
       21 -1    0    0  502  503 -0.0000000000e+00 -0.0000000000e+00 -3.9465384425e+02 3.9465384425e+02 0.0000000000e+00 0.0000e+00 1.0000e+00
        6  1    1    2  501    0 -1.6473182883e+01 +6.1532695603e+01 +7.0409757915e+01 1.9734277892e+02 1.7300000000e+02 0.0000e+00 -1.0000e+00
       -6  1    1    2    0  505 +3.0549078479e+01 -7.5533307610e+01 +2.0700735825e+02 2.8181478514e+02 1.7300000000e+02 0.0000e+00 1.0000e+00
       21  1    1    2  504  501 -1.9565339473e+01 -1.3764870236e+01 -2.7072432707e+02 2.7177920346e+02 0.0000000000e+00 0.0000e+00 1.0000e+00
       21  1    1    2  505  503 +5.4894438775e+00 +2.7765482243e+01 -1.3643816334e+01 3.1419893737e+01 0.0000000000e+00 0.0000e+00 -1.0000e+00
<mgrwt>
<rscale>  4 0.18846365E+03</rscale>
<asrwt>0</asrwt>
<pdfrwt beam="1">  1       21 0.59646587E-01 0.18846365E+03</pdfrwt>
<pdfrwt beam="2">  1       21 0.60715976E-01 0.18846365E+03</pdfrwt>
<totfact> 0.66495373E+03</totfact>
</mgrwt>
</event>
<event>
 6      1 +2.5168323e+02 3.26471300e+02 7.54677100e-03 1.16820100e-01
       21 -1    0    0  501  502 +0.0000000000e+00 +0.0000000000e+00 +4.7712369925e+02 4.7712369925e+02 0.0000000000e+00 0.0000e+00 1.0000e+00
       21 -1    0    0  504  503 -0.0000000000e+00 -0.0000000000e+00 -2.6386696671e+03 2.6386696671e+03 0.0000000000e+00 0.0000e+00 -1.0000e+00
        6  1    1    2  501    0 +7.3289915448e+01 +2.5757559268e+02 -1.2615962097e+02 3.4287293217e+02 1.7300000000e+02 0.0000e+00 1.0000e+00
       -6  1    1    2    0  503 -1.7065657599e+02 +6.2222200805e+01 +2.0916762472e+01 2.5171765960e+02 1.7300000000e+02 0.0000e+00 1.0000e+00
       21  1    1    2  504  505 -3.5045438244e+01 -8.4227753375e-01 -2.1602619736e+03 2.1605463862e+03 0.0000000000e+00 0.0000e+00 -1.0000e+00
       21  1    1    2  505  502 +1.3241209878e+02 -3.1895551595e+02 +1.0395886424e+02 3.6065638843e+02 0.0000000000e+00 0.0000e+00 1.0000e+00
<mgrwt>
<rscale>  4 0.30740345E+03</rscale>
<asrwt>0</asrwt>
<pdfrwt beam="1">  1       21 0.73403645E-01 0.32647128E+03</pdfrwt>
<pdfrwt beam="2">  1       21 0.40594919E+00 0.32647128E+03</pdfrwt>
<totfact> 0.10815118E+01</totfact>
</mgrwt>
</event>
<event>
 6      1 +2.5168323e+02 2.07210400e+02 7.54677100e-03 1.12068800e-01
       21 -1    0    0  504  502 +0.0000000000e+00 +0.0000000000e+00 +6.6900637642e+01 6.6900637642e+01 0.0000000000e+00 0.0000e+00 1.0000e+00
       21 -1    0    0  502  503 -0.0000000000e+00 -0.0000000000e+00 -9.2320368355e+02 9.2320368355e+02 0.0000000000e+00 0.0000e+00 1.0000e+00
        6  1    1    2  501    0 -1.0567249095e+02 +5.3780119392e+01 -4.2066818335e+02 4.7005286625e+02 1.7300000000e+02 0.0000e+00 1.0000e+00
       -6  1    1    2    0  505 +6.9163949492e+01 -9.3139426760e+01 -2.6410849146e+02 3.3636423708e+02 1.7300000000e+02 0.0000e+00 1.0000e+00
       21  1    1    2  504  501 +1.3427735281e+01 +3.9579989556e+01 -1.2395585138e+02 1.3081258632e+02 0.0000000000e+00 0.0000e+00 -1.0000e+00
       21  1    1    2  505  503 +2.3080806179e+01 -2.2068218845e-01 -4.7570519716e+01 5.2874631541e+01 0.0000000000e+00 0.0000e+00 1.0000e+00
<mgrwt>
<rscale>  4 0.20721040E+03</rscale>
<asrwt>0</asrwt>
<pdfrwt beam="1">  1       21 0.10292407E-01 0.20721040E+03</pdfrwt>
<pdfrwt beam="2">  1       21 0.14203133E+00 0.20721040E+03</pdfrwt>
<totfact> 0.26341485E+04</totfact>
</mgrwt>
</event>
<event>
 6      1 +2.5168323e+02 1.99135800e+02 7.54677100e-03 1.15942100e-01
       21 -1    0    0  504  502 +0.0000000000e+00 +0.0000000000e+00 +8.5384561022e+02 8.5384561022e+02 0.0000000000e+00 0.0000e+00 -1.0000e+00
       21 -1    0    0  501  503 -0.0000000000e+00 -0.0000000000e+00 -1.0637469850e+02 1.0637469850e+02 0.0000000000e+00 0.0000e+00 -1.0000e+00
        6  1    1    2  501    0 -1.0812265136e+02 -1.3585625603e+02 +3.6066086012e+02 4.3606500210e+02 1.7300000000e+02 0.0000e+00 -1.0000e+00
       -6  1    1    2    0  502 +4.9420422807e+01 +2.0313554472e+01 +3.0185744271e+02 3.5199706590e+02 1.7300000000e+02 0.0000e+00 1.0000e+00
       21  1    1    2  504  505 +2.1014021484e+01 +9.1780582278e+01 +8.6103660540e+01 1.2758959495e+02 0.0000000000e+00 0.0000e+00 -1.0000e+00
       21  1    1    2  505  503 +3.7688207071e+01 +2.3762119277e+01 -1.1510516469e+00 4.4568645758e+01 0.0000000000e+00 0.0000e+00 -1.0000e+00
<mgrwt>
<rscale>  4 0.19913585E+03</rscale>
<asrwt>0</asrwt>
<pdfrwt beam="1">  1       21 0.13136086E+00 0.19913585E+03</pdfrwt>
<pdfrwt beam="2">  1       21 0.16365339E-01 0.19913585E+03</pdfrwt>
<totfact> 0.14022404E+04</totfact>
</mgrwt>
</event>
<event>
 6      1 +2.5168323e+02 2.73734400e+02 7.54677100e-03 1.16820100e-01
       21 -1    0    0  504  502 +0.0000000000e+00 +0.0000000000e+00 +2.0672438930e+03 2.0672438930e+03 0.0000000000e+00 0.0000e+00 1.0000e+00
       21 -1    0    0  501  503 -0.0000000000e+00 -0.0000000000e+00 -1.2197277044e+02 1.2197277044e+02 0.0000000000e+00 0.0000e+00 -1.0000e+00
        6  1    1    2  501    0 -1.0128757590e+02 +1.7636013891e+02 +2.0393221490e+02 3.3597532633e+02 1.7300000000e+02 0.0000e+00 -1.0000e+00
       -6  1    1    2    0  505 +1.3716712484e+02 -1.5279679163e+02 +1.3163848419e+03 1.3434878979e+03 1.7300000000e+02 0.0000e+00 1.0000e+00
       21  1    1    2  504  503 -2.6069416785e+01 -6.1734731108e-01 -3.8022183151e+01 4.6105119247e+01 0.0000000000e+00 0.0000e+00 -1.0000e+00
       21  1    1    2  505  502 -9.8101321601e+00 -2.2945999968e+01 +4.6297624893e+02 4.6364832005e+02 0.0000000000e+00 0.0000e+00 1.0000e+00
<mgrwt>
<rscale>  4 0.27373441E+03</rscale>
<asrwt>0</asrwt>
<pdfrwt beam="1">  1       21 0.31803750E+00 0.27373441E+03</pdfrwt>
<pdfrwt beam="2">  1       21 0.18765043E-01 0.27373441E+03</pdfrwt>
<totfact> 0.63320195E+02</totfact>
</mgrwt>
</event>
<event>
 6      1 +2.5168323e+02 2.23645400e+02 7.54677100e-03 1.16820100e-01
       21 -1    0    0  504  502 +0.0000000000e+00 +0.0000000000e+00 +4.6882033735e+02 4.6882033735e+02 0.0000000000e+00 0.0000e+00 -1.0000e+00
       21 -1    0    0  501  503 -0.0000000000e+00 -0.0000000000e+00 -2.8074886034e+02 2.8074886034e+02 0.0000000000e+00 0.0000e+00 -1.0000e+00
        6  1    1    2  501    0 -9.8601187329e+01 -7.2285160912e+01 -1.7550879682e+02 2.7509939366e+02 1.7300000000e+02 0.0000e+00 -1.0000e+00
       -6  1    1    2    0  505 +9.0133032258e+01 +1.0080575627e+02 +2.5143387470e+02 3.3381695186e+02 1.7300000000e+02 0.0000e+00 -1.0000e+00
       21  1    1    2  504  503 -2.1180203080e+01 -1.6682379724e+01 +3.2297078212e+00 2.7153891219e+01 0.0000000000e+00 0.0000e+00 -1.0000e+00
       21  1    1    2  505  502 +2.9648358151e+01 -1.1838215632e+01 +1.0891669132e+02 1.1349896096e+02 0.0000000000e+00 0.0000e+00 -1.0000e+00
<mgrwt>
<rscale>  4 0.22364535E+03</rscale>
<asrwt>0</asrwt>
<pdfrwt beam="1">  1       21 0.72126206E-01 0.22364535E+03</pdfrwt>
<pdfrwt beam="2">  1       21 0.43192132E-01 0.22364535E+03</pdfrwt>
<totfact> 0.87518403E+03</totfact>
</mgrwt>
</event>
<event>
 6      1 +2.5168323e+02 1.75140400e+02 7.54677100e-03 1.07240600e-01
       21 -1    0    0  505  502 +0.0000000000e+00 +0.0000000000e+00 +1.2821535498e+03 1.2821535498e+03 0.0000000000e+00 0.0000e+00 1.0000e+00
       21 -1    0    0  504  503 -0.0000000000e+00 -0.0000000000e+00 -1.5501962641e+02 1.5501962641e+02 0.0000000000e+00 0.0000e+00 -1.0000e+00
        6  1    1    2  501    0 -5.1541934763e+01 +2.9412188128e+01 +5.5416846124e+02 5.8356947426e+02 1.7300000000e+02 0.0000e+00 -1.0000e+00
       -6  1    1    2    0  502 +5.8476725183e+00 +2.5202482855e+01 +5.4139582066e+02 5.6895324505e+02 1.7300000000e+02 0.0000e+00 1.0000e+00
       21  1    1    2  504  501 -2.1497009305e+01 -1.3972973563e+01 +1.4469083880e+02 1.4694490203e+02 0.0000000000e+00 0.0000e+00 1.0000e+00
       21  1    1    2  505  503 +6.7191271550e+01 -4.0641697421e+01 -1.1312119736e+02 1.3770555484e+02 0.0000000000e+00 0.0000e+00 -1.0000e+00
<mgrwt>
<rscale>  4 0.17514043E+03</rscale>
<asrwt>0</asrwt>
<pdfrwt beam="1">  1       21 0.19725439E+00 0.17514043E+03</pdfrwt>
<pdfrwt beam="2">  1       21 0.23849174E-01 0.17514043E+03</pdfrwt>
<totfact> 0.23604295E+03</totfact>
</mgrwt>
</event>
<event>
 6      1 +2.5168323e+02 1.79146100e+02 7.54677100e-03 1.17132900e-01
       21 -1    0    0  505  502 +0.0000000000e+00 +0.0000000000e+00 +1.6194089773e+02 1.6194089773e+02 0.0000000000e+00 0.0000e+00 -1.0000e+00
       21 -1    0    0  504  503 -0.0000000000e+00 -0.0000000000e+00 -4.5167811268e+02 4.5167811268e+02 0.0000000000e+00 0.0000e+00 -1.0000e+00
        6  1    1    2  501    0 -9.1165039815e+00 +5.7797560111e+01 -1.3609728239e+02 2.2776114435e+02 1.7300000000e+02 0.0000e+00 -1.0000e+00
       -6  1    1    2    0  502 -3.2964296487e+01 -4.0159810292e+01 -3.7716027471e+01 1.8452900567e+02 1.7300000000e+02 0.0000e+00 -1.0000e+00
       21  1    1    2  504  501 +6.2823036806e+00 -2.2382479244e+01 -1.4993252777e+02 1.5172411015e+02 0.0000000000e+00 0.0000e+00 -1.0000e+00
       21  1    1    2  505  503 +3.5798496787e+01 +4.7447294239e+00 +3.4008622688e+01 4.9604750243e+01 0.0000000000e+00 0.0000e+00 -1.0000e+00
<mgrwt>
<rscale>  4 0.17914611E+03</rscale>
<asrwt>0</asrwt>
<pdfrwt beam="1">  1       21 0.24913984E-01 0.17914611E+03</pdfrwt>
<pdfrwt beam="2">  1       21 0.69488941E-01 0.17914611E+03</pdfrwt>
<totfact> 0.28925563E+04</totfact>
</mgrwt>
</event>
<event>
 6      1 +2.5168323e+02 2.09958000e+02 7.54677100e-03 1.15942100e-01
       21 -1    0    0  504  502 +0.0000000000e+00 +0.0000000000e+00 +7.5642198592e+02 7.5642198592e+02 0.0000000000e+00 0.0000e+00 1.0000e+00
       21 -1    0    0  501  503 -0.0000000000e+00 -0.0000000000e+00 -1.7188172511e+02 1.7188172511e+02 0.0000000000e+00 0.0000e+00 1.0000e+00
        6  1    1    2  501    0 +1.3833997197e+01 +1.1636444411e+02 +5.2901882629e+02 5.6878992775e+02 1.7300000000e+02 0.0000e+00 1.0000e+00
       -6  1    1    2    0  502 +7.2142794474e+01 -1.2802028248e+02 +1.0544789081e+02 2.5028390519e+02 1.7300000000e+02 0.0000e+00 1.0000e+00
       21  1    1    2  504  505 -5.8413134116e+01 -6.5328132198e+00 -4.8451554105e+01 7.6172993778e+01 0.0000000000e+00 0.0000e+00 1.0000e+00
       21  1    1    2  505  503 -2.7563657554e+01 +1.8188651587e+01 -1.4749021773e+00 3.3056884317e+01 0.0000000000e+00 0.0000e+00 -1.0000e+00
<mgrwt>
<rscale>  4 0.20995803E+03</rscale>
<asrwt>0</asrwt>
<pdfrwt beam="1">  1       21 0.11637261E+00 0.20995803E+03</pdfrwt>
<pdfrwt beam="2">  1       21 0.26443343E-01 0.20995803E+03</pdfrwt>
<totfact> 0.76487691E+03</totfact>
</mgrwt>
</event>
<event>
 6      1 +2.5168323e+02 2.84735400e+02 7.54677100e-03 1.09842800e-01
       21 -1    0    0  503  502 +0.0000000000e+00 +0.0000000000e+00 +1.6823892017e+03 1.6823892017e+03 0.0000000000e+00 0.0000e+00 1.0000e+00
       21 -1    0    0  501  503 -0.0000000000e+00 -0.0000000000e+00 -1.6503428889e+02 1.6503428889e+02 0.0000000000e+00 0.0000e+00 1.0000e+00
        6  1    1    2  501    0 +1.9061583107e+02 +1.0650278015e+02 +1.1955175848e+03 1.2275457355e+03 1.7300000000e+02 0.0000e+00 1.0000e+00
       -6  1    1    2    0  504 -1.8432992597e+02 +6.0631035205e+00 +3.2029756611e+00 2.5289037524e+02 1.7300000000e+02 0.0000e+00 1.0000e+00
       21  1    1    2  504  505 -3.4294720546e+01 -1.0289968384e+02 +1.0383433096e+02 1.5015339182e+02 0.0000000000e+00 0.0000e+00 1.0000e+00
       21  1    1    2  505  502 +2.8008815447e+01 -9.6661998347e+00 +2.1480002140e+02 2.1683398801e+02 0.0000000000e+00 0.0000e+00 -1.0000e+00
<mgrwt>
<rscale>  4 0.28473545E+03</rscale>
<asrwt>0</asrwt>
<pdfrwt beam="1">  1       21 0.25882910E+00 0.28473545E+03</pdfrwt>
<pdfrwt beam="2">  1       21 0.25389892E-01 0.28473545E+03</pdfrwt>
<totfact> 0.78784755E+02</totfact>
</mgrwt>
</event>
<event>
 6      1 +2.5168323e+02 1.75099900e+02 7.54677100e-03 1.07064900e-01
       21 -1    0    0  505  502 +0.0000000000e+00 +0.0000000000e+00 +6.0402605248e+01 6.0402605248e+01 0.0000000000e+00 0.0000e+00 -1.0000e+00
       21 -1    0    0  504  503 -0.0000000000e+00 -0.0000000000e+00 -1.8430910839e+03 1.8430910839e+03 0.0000000000e+00 0.0000e+00 -1.0000e+00
        6  1    1    2  501    0 +6.1932003501e+00 -2.5259906599e+01 -1.1918613205e+03 1.2046322367e+03 1.7300000000e+02 0.0000e+00 -1.0000e+00
       -6  1    1    2    0  503 -4.2471864562e+01 -2.9338173914e+01 -5.0242576716e+02 5.3387755078e+02 1.7300000000e+02 0.0000e+00 -1.0000e+00
       21  1    1    2  504  502 +2.3969616494e+01 +2.2444207580e+01 -1.1618885564e+02 1.2073994842e+02 0.0000000000e+00 0.0000e+00 1.0000e+00
       21  1    1    2  505  501 +1.2309047718e+01 +3.2153872933e+01 +2.7787464639e+01 4.4243953161e+01 0.0000000000e+00 0.0000e+00 -1.0000e+00
<mgrwt>
<rscale>  4 0.17509992E+03</rscale>
<asrwt>0</asrwt>
<pdfrwt beam="1">  1       21 0.92927085E-02 0.17509992E+03</pdfrwt>
<pdfrwt beam="2">  1       21 0.28355247E+00 0.17509992E+03</pdfrwt>
<totfact> 0.40034109E+03</totfact>
</mgrwt>
</event>
<event>
 6      1 +2.5168323e+02 2.07478900e+02 7.54677100e-03 1.16820100e-01
       21 -1    0    0  505  502 +0.0000000000e+00 +0.0000000000e+00 +1.3964381016e+02 1.3964381016e+02 0.0000000000e+00 0.0000e+00 1.0000e+00
       21 -1    0    0  501  503 -0.0000000000e+00 -0.0000000000e+00 -1.0634762360e+03 1.0634762360e+03 0.0000000000e+00 0.0000e+00 1.0000e+00
        6  1    1    2  501    0 +9.0114248658e+01 +7.2476009439e+01 -4.3032475161e+02 4.7799763765e+02 1.7300000000e+02 0.0000e+00 1.0000e+00
       -6  1    1    2    0  502 -6.7725439040e+01 -3.0400220572e+01 -4.3271735157e+01 1.9316405351e+02 1.7300000000e+02 0.0000e+00 1.0000e+00
       21  1    1    2  504  503 +4.2718633117e+01 -3.1609155535e+01 -4.6193804967e+02 4.6498471164e+02 0.0000000000e+00 0.0000e+00 1.0000e+00
       21  1    1    2  505  504 -6.5107442735e+01 -1.0466633332e+01 +1.1702110592e+01 6.6973643361e+01 0.0000000000e+00 0.0000e+00 1.0000e+00
<mgrwt>
<rscale>  4 0.20747885E+03</rscale>
<asrwt>0</asrwt>
<pdfrwt beam="1">  1       21 0.21483664E-01 0.20747885E+03</pdfrwt>
<pdfrwt beam="2">  1       21 0.16361172E+00 0.20747885E+03</pdfrwt>
<totfact> 0.47223893E+03</totfact>
</mgrwt>
</event>
<event>
 6      1 +2.5168323e+02 1.73622200e+02 7.54677100e-03 1.17132900e-01
       21 -1    0    0  505  502 +0.0000000000e+00 +0.0000000000e+00 +5.6911627796e+02 5.6911627796e+02 0.0000000000e+00 0.0000e+00 1.0000e+00
       21 -1    0    0  504  503 -0.0000000000e+00 -0.0000000000e+00 -1.4486855086e+02 1.4486855086e+02 0.0000000000e+00 0.0000e+00 1.0000e+00
        6  1    1    2  501    0 +2.9369198572e+01 +3.5373018700e+01 +1.5440993128e+02 2.3640056505e+02 1.7300000000e+02 0.0000e+00 1.0000e+00
       -6  1    1    2    0  502 +6.2030245898e+00 +5.3607576629e+01 +1.5276477473e+02 2.3701967468e+02 1.7300000000e+02 0.0000e+00 1.0000e+00
       21  1    1    2  504  501 -2.9735974584e+01 +3.2985808667e+00 -4.4960590007e+01 5.4005217100e+01 0.0000000000e+00 0.0000e+00 1.0000e+00
       21  1    1    2  505  503 -5.8362485774e+00 -9.2279176196e+01 +1.6203361109e+02 1.8655937199e+02 0.0000000000e+00 0.0000e+00 1.0000e+00
<mgrwt>
<rscale>  4 0.17362222E+03</rscale>
<asrwt>0</asrwt>
<pdfrwt beam="1">  1       21 0.87556349E-01 0.17362222E+03</pdfrwt>
<pdfrwt beam="2">  1       21 0.22287470E-01 0.17362222E+03</pdfrwt>
<totfact> 0.21333335E+04</totfact>
</mgrwt>
</event>
<event>
 6      1 +2.5168323e+02 3.43648100e+02 7.54677100e-03 1.05854100e-01
       21 -1    0    0  505  502 +0.0000000000e+00 +0.0000000000e+00 +1.1150880307e+02 1.1150880307e+02 0.0000000000e+00 0.0000e+00 -1.0000e+00
       21 -1    0    0  501  503 -0.0000000000e+00 -0.0000000000e+00 -4.0111399103e+03 4.0111399103e+03 0.0000000000e+00 0.0000e+00 -1.0000e+00
        6  1    1    2  501    0 +1.5635330049e+02 +2.2542484486e+02 -2.3900763708e+03 2.4119819182e+03 1.7300000000e+02 0.0000e+00 -1.0000e+00
       -6  1    1    2    0  502 -3.0211079565e+02 -6.8146232745e+01 -2.6130843813e+02 4.4059725569e+02 1.7300000000e+02 0.0000e+00 -1.0000e+00
       21  1    1    2  504  503 +1.5095884518e+02 -1.1065386149e+02 -1.0246196414e+03 1.0415748938e+03 0.0000000000e+00 0.0000e+00 -1.0000e+00
       21  1    1    2  505  504 -5.2013500197e+00 -4.6624750625e+01 -2.2362665687e+02 2.2849464562e+02 0.0000000000e+00 0.0000e+00 -1.0000e+00
<mgrwt>
<rscale>  4 0.34364809E+03</rscale>
<asrwt>0</asrwt>
<pdfrwt beam="1">  1       21 0.17155202E-01 0.34364809E+03</pdfrwt>
<pdfrwt beam="2">  1       21 0.61709838E+00 0.34364809E+03</pdfrwt>
<totfact> 0.61507856E+00</totfact>
</mgrwt>
</event>
<event>
 6      1 +2.5168323e+02 1.87020800e+02 7.54677100e-03 1.12068800e-01
       21 -1    0    0  504  502 +0.0000000000e+00 +0.0000000000e+00 +3.2833542706e+02 3.2833542706e+02 0.0000000000e+00 0.0000e+00 1.0000e+00
       21 -1    0    0  502  503 -0.0000000000e+00 -0.0000000000e+00 -5.6543877093e+02 5.6543877093e+02 0.0000000000e+00 0.0000e+00 1.0000e+00
        6  1    1    2  501    0 +3.9975215059e+01 -7.5233551456e+01 +2.0954866631e+02 2.8477666449e+02 1.7300000000e+02 0.0000e+00 -1.0000e+00
       -6  1    1    2    0  505 +3.4007457598e+01 +3.4340898551e+01 -8.5660784959e+01 1.9900395616e+02 1.7300000000e+02 0.0000e+00 -1.0000e+00
       21  1    1    2  504  501 -5.6164866500e+01 -1.3039732792e+01 -1.5282181817e+01 5.9649576204e+01 0.0000000000e+00 0.0000e+00 -1.0000e+00
       21  1    1    2  505  503 -1.7817806157e+01 +5.3932385696e+01 -3.4570904340e+02 3.5034400114e+02 0.0000000000e+00 0.0000e+00 1.0000e+00
<mgrwt>
<rscale>  4 0.18702078E+03</rscale>
<asrwt>0</asrwt>
<pdfrwt beam="1">  1       21 0.50513143E-01 0.18702078E+03</pdfrwt>
<pdfrwt beam="2">  1       21 0.86990580E-01 0.18702078E+03</pdfrwt>
<totfact> 0.42579773E+03</totfact>
</mgrwt>
</event>
<event>
 6      1 +2.5168323e+02 3.41350500e+02 7.54677100e-03 1.17132900e-01
       21 -1    0    0  505  502 +0.0000000000e+00 +0.0000000000e+00 +9.6120775797e+02 9.6120775797e+02 0.0000000000e+00 0.0000e+00 1.0000e+00
       21 -1    0    0  504  503 -0.0000000000e+00 -0.0000000000e+00 -4.5268539534e+02 4.5268539534e+02 0.0000000000e+00 0.0000e+00 -1.0000e+00
        6  1    1    2  501    0 +2.2424463563e+00 -3.4678115519e+02 +9.6908360955e+01 3.9947769473e+02 1.7300000000e+02 0.0000e+00 -1.0000e+00
       -6  1    1    2    0  502 -1.0322272667e+02 +2.6265517063e+02 +4.8957354903e+02 5.9097709758e+02 1.7300000000e+02 0.0000e+00 1.0000e+00
       21  1    1    2  504  501 +3.4717016275e+01 -1.0263272706e+02 -1.7263540176e+02 2.0381788396e+02 0.0000000000e+00 0.0000e+00 -1.0000e+00
       21  1    1    2  505  503 +6.6263264036e+01 +1.8675871162e+02 +9.4675854404e+01 2.1962047704e+02 0.0000000000e+00 0.0000e+00 1.0000e+00
<mgrwt>
<rscale>  4 0.34135047E+03</rscale>
<asrwt>0</asrwt>
<pdfrwt beam="1">  1       21 0.14787812E+00 0.34135047E+03</pdfrwt>
<pdfrwt beam="2">  1       21 0.69643907E-01 0.34135047E+03</pdfrwt>
<totfact> 0.51321631E+02</totfact>
</mgrwt>
</event>
<event>
 6      1 +2.5168323e+02 1.78071900e+02 7.54677100e-03 1.04003000e-01
       21 -1    0    0  504  502 +0.0000000000e+00 +0.0000000000e+00 +3.0019737984e+02 3.0019737984e+02 0.0000000000e+00 0.0000e+00 1.0000e+00
       21 -1    0    0  505  503 -0.0000000000e+00 -0.0000000000e+00 -6.9157243565e+02 6.9157243565e+02 0.0000000000e+00 0.0000e+00 -1.0000e+00
        6  1    1    2  501    0 -1.1539719423e+02 -1.9536379978e+01 -1.4411929867e+02 2.5376673310e+02 1.7300000000e+02 0.0000e+00 1.0000e+00
       -6  1    1    2    0  503 -1.2605711963e+01 +4.5627117688e+01 +1.7731958121e+02 2.5221413862e+02 1.7300000000e+02 0.0000e+00 1.0000e+00
       21  1    1    2  504  501 +1.6847786325e+01 -1.2398336660e+01 -3.5136692972e+02 3.5198904238e+02 0.0000000000e+00 0.0000e+00 -1.0000e+00
       21  1    1    2  505  502 +1.1115511987e+02 -1.3692401051e+01 -7.3208408625e+01 1.3379990139e+02 0.0000000000e+00 0.0000e+00 -1.0000e+00
<mgrwt>
<rscale>  4 0.17807191E+03</rscale>
<asrwt>0</asrwt>
<pdfrwt beam="1">  1       21 0.46184213E-01 0.17807191E+03</pdfrwt>
<pdfrwt beam="2">  1       21 0.10639576E+00 0.17807191E+03</pdfrwt>
<totfact> 0.32202635E+03</totfact>
</mgrwt>
</event>
<event>
 6      1 +2.5168323e+02 2.96341900e+02 7.54677100e-03 1.07064900e-01
       21 -1    0    0  501  502 +0.0000000000e+00 +0.0000000000e+00 +5.6985959525e+02 5.6985959525e+02 0.0000000000e+00 0.0000e+00 -1.0000e+00
       21 -1    0    0  504  503 -0.0000000000e+00 -0.0000000000e+00 -6.6400694448e+02 6.6400694448e+02 0.0000000000e+00 0.0000e+00 1.0000e+00
        6  1    1    2  501    0 -2.3998701361e+02 +2.7803896791e+01 +4.5175196951e+01 3.0056051270e+02 1.7300000000e+02 0.0000e+00 -1.0000e+00
       -6  1    1    2    0  503 +2.0449896523e+02 +1.5413828283e+02 -4.1704028910e+02 5.1906650802e+02 1.7300000000e+02 0.0000e+00 1.0000e+00
       21  1    1    2  504  505 +2.7457697984e+01 -2.1915213655e+02 +1.1872506678e+02 2.5075331626e+02 0.0000000000e+00 0.0000e+00 -1.0000e+00
       21  1    1    2  505  502 +8.0303503900e+00 +3.7209956926e+01 +1.5899267615e+02 1.6348620275e+02 0.0000000000e+00 0.0000e+00 -1.0000e+00
<mgrwt>
<rscale>  4 0.29634193E+03</rscale>
<asrwt>0</asrwt>
<pdfrwt beam="1">  1       21 0.87670708E-01 0.29634193E+03</pdfrwt>
<pdfrwt beam="2">  1       21 0.10215491E+00 0.29634193E+03</pdfrwt>
<totfact> 0.79826404E+02</totfact>
</mgrwt>
</event>
<event>
 6      1 +2.5168323e+02 1.98836000e+02 7.54677100e-03 1.17392200e-01
       21 -1    0    0  504  502 +0.0000000000e+00 +0.0000000000e+00 +3.6991346309e+02 3.6991346309e+02 0.0000000000e+00 0.0000e+00 -1.0000e+00
       21 -1    0    0  501  503 -0.0000000000e+00 -0.0000000000e+00 -4.7601550660e+02 4.7601550660e+02 0.0000000000e+00 0.0000e+00 1.0000e+00
        6  1    1    2  501    0 -9.2613962993e+01 -1.3187217396e+01 -3.2672079523e+02 3.8134856350e+02 1.7300000000e+02 0.0000e+00 1.0000e+00
       -6  1    1    2    0  502 +1.0111223582e+02 +1.6147105626e+02 +1.5045624109e+02 2.9809841786e+02 1.7300000000e+02 0.0000e+00 -1.0000e+00
       21  1    1    2  504  505 -8.5095499969e+00 -1.0989304961e+02 +6.4412185489e+01 1.2766293288e+02 0.0000000000e+00 0.0000e+00 -1.0000e+00
       21  1    1    2  505  503 +1.1277167388e-02 -3.8390789261e+01 +5.7503251394e+00 3.8819055456e+01 0.0000000000e+00 0.0000e+00 1.0000e+00
<mgrwt>
<rscale>  4 0.19883595E+03</rscale>
<asrwt>0</asrwt>
<pdfrwt beam="1">  1       21 0.56909763E-01 0.19883595E+03</pdfrwt>
<pdfrwt beam="2">  1       21 0.73233155E-01 0.19883595E+03</pdfrwt>
<totfact> 0.48409115E+03</totfact>
</mgrwt>
</event>
<event>
 6      1 +2.5168323e+02 2.03024200e+02 7.54677100e-03 1.06249800e-01
       21 -1    0    0  504  502 +0.0000000000e+00 +0.0000000000e+00 +1.2534308397e+03 1.2534308397e+03 0.0000000000e+00 0.0000e+00 -1.0000e+00
       21 -1    0    0  501  503 -0.0000000000e+00 -0.0000000000e+00 -9.5414410687e+01 9.5414410687e+01 0.0000000000e+00 0.0000e+00 -1.0000e+00
        6  1    1    2  501    0 +3.6822911866e+01 +1.1057428524e+01 +2.3620137015e+02 2.9529355026e+02 1.7300000000e+02 0.0000e+00 -1.0000e+00
       -6  1    1    2    0  505 -1.7777010212e+02 +2.0976627963e+01 +2.1810775491e+02 3.3097163154e+02 1.7300000000e+02 0.0000e+00 -1.0000e+00
       21  1    1    2  504  503 +1.1788959101e+02 -5.3503618785e+01 +6.1402586247e+02 6.2752557930e+02 0.0000000000e+00 0.0000e+00 -1.0000e+00
       21  1    1    2  505  502 +2.3057599246e+01 +2.1469562298e+01 +8.9681441466e+01 9.5054489277e+01 0.0000000000e+00 0.0000e+00 -1.0000e+00
<mgrwt>
<rscale>  4 0.20302422E+03</rscale>
<asrwt>0</asrwt>
<pdfrwt beam="1">  1       21 0.19283550E+00 0.20302422E+03</pdfrwt>
<pdfrwt beam="2">  1       21 0.14679141E-01 0.20302422E+03</pdfrwt>
<totfact> 0.60413804E+03</totfact>
</mgrwt>
</event>
<event>
 6      1 +2.5168323e+02 2.57892600e+02 7.54677100e-03 1.07064900e-01
       21 -1    0    0  504  502 +0.0000000000e+00 +0.0000000000e+00 +3.5482446685e+02 3.5482446685e+02 0.0000000000e+00 0.0000e+00 1.0000e+00
       21 -1    0    0  501  503 -0.0000000000e+00 -0.0000000000e+00 -2.0392601549e+03 2.0392601549e+03 0.0000000000e+00 0.0000e+00 -1.0000e+00
        6  1    1    2  501    0 -7.5303106061e+01 +9.2513418559e+00 -1.3212251210e+03 1.3346613674e+03 1.7300000000e+02 0.0000e+00 -1.0000e+00
       -6  1    1    2    0  505 -1.1531687553e+02 -7.2544297627e+01 -6.4590296779e+02 6.8240772321e+02 1.7300000000e+02 0.0000e+00 -1.0000e+00
       21  1    1    2  504  503 +6.2188788901e+01 -2.7478068133e+01 +2.0045040175e+01 7.0882249744e+01 0.0000000000e+00 0.0000e+00 -1.0000e+00
       21  1    1    2  505  502 +1.2843119269e+02 +9.0771023904e+01 +2.6264736053e+02 3.0613328148e+02 0.0000000000e+00 0.0000e+00 1.0000e+00
<mgrwt>
<rscale>  4 0.23840545E+03</rscale>
<asrwt>0</asrwt>
<pdfrwt beam="1">  1       21 0.54588379E-01 0.25789255E+03</pdfrwt>
<pdfrwt beam="2">  1       21 0.31373234E+00 0.25789255E+03</pdfrwt>
<totfact> 0.81975272E+01</totfact>
</mgrwt>
</event>
<event>
 6      1 +2.5168323e+02 3.49129100e+02 7.54677100e-03 1.17392200e-01
       21 -1    0    0  504  502 +0.0000000000e+00 +0.0000000000e+00 +8.1375841538e+02 8.1375841538e+02 0.0000000000e+00 0.0000e+00 1.0000e+00
       21 -1    0    0  501  503 -0.0000000000e+00 -0.0000000000e+00 -3.5029704602e+02 3.5029704602e+02 0.0000000000e+00 0.0000e+00 1.0000e+00
        6  1    1    2  501    0 -2.4022793050e+02 +3.8529082376e+01 +1.2642099536e+02 3.2419934739e+02 1.7300000000e+02 0.0000e+00 -1.0000e+00
       -6  1    1    2    0  502 +2.7100102932e+02 -3.2259311337e+02 +3.0281330329e+02 5.4693031671e+02 1.7300000000e+02 0.0000e+00 1.0000e+00
       21  1    1    2  504  505 +1.0272256123e+01 +4.1456252900e+01 -7.4820456886e+00 4.3360363906e+01 0.0000000000e+00 0.0000e+00 1.0000e+00
       21  1    1    2  505  503 -4.1045354949e+01 +2.4260777809e+02 +4.1709116401e+01 2.4956543339e+02 0.0000000000e+00 0.0000e+00 1.0000e+00
<mgrwt>
<rscale>  4 0.34912907E+03</rscale>
<asrwt>0</asrwt>
<pdfrwt beam="1">  1       21 0.12519360E+00 0.34912907E+03</pdfrwt>
<pdfrwt beam="2">  1       21 0.53891853E-01 0.34912907E+03</pdfrwt>
<totfact> 0.13827135E+03</totfact>
</mgrwt>
</event>
<event>
 6      1 +2.5168323e+02 2.41437400e+02 7.54677100e-03 1.07064900e-01
       21 -1    0    0  505  502 +0.0000000000e+00 +0.0000000000e+00 +1.2955465573e+03 1.2955465573e+03 0.0000000000e+00 0.0000e+00 1.0000e+00
       21 -1    0    0  504  503 -0.0000000000e+00 -0.0000000000e+00 -2.2494093120e+02 2.2494093120e+02 0.0000000000e+00 0.0000e+00 1.0000e+00
        6  1    1    2  501    0 +9.5650174565e+01 -5.4680671723e+01 +3.1146775723e+02 3.7293443868e+02 1.7300000000e+02 0.0000e+00 1.0000e+00
       -6  1    1    2    0  503 +5.9496387198e+01 -2.9993341007e+01 -1.2337501390e+02 2.2268770655e+02 1.7300000000e+02 0.0000e+00 1.0000e+00
       21  1    1    2  504  502 +3.9871236678e+01 -5.6298401372e-01 +3.3624260775e+02 3.3859876511e+02 0.0000000000e+00 0.0000e+00 1.0000e+00
       21  1    1    2  505  501 -1.9501779844e+02 +8.5236996744e+01 +5.4627027497e+02 5.8626657814e+02 0.0000000000e+00 0.0000e+00 1.0000e+00
<mgrwt>
<rscale>  4 0.22621415E+03</rscale>
<asrwt>0</asrwt>
<pdfrwt beam="1">  1       21 0.19931485E+00 0.24143737E+03</pdfrwt>
<pdfrwt beam="2">  1       21 0.34606298E-01 0.24143737E+03</pdfrwt>
<totfact> 0.10387863E+03</totfact>
</mgrwt>
</event>
<event>
 6      1 +2.5168323e+02 2.21722200e+02 7.54677100e-03 9.87464100e-02
       21 -1    0    0  503  502 +0.0000000000e+00 +0.0000000000e+00 +4.6047239357e+02 4.6047239357e+02 0.0000000000e+00 0.0000e+00 1.0000e+00
       21 -1    0    0  505  503 -0.0000000000e+00 -0.0000000000e+00 -1.7720256438e+02 1.7720256438e+02 0.0000000000e+00 0.0000e+00 1.0000e+00
        6  1    1    2  501    0 +7.6068467368e+00 +1.3974764577e+02 +1.5113702701e+02 2.6899566827e+02 1.7300000000e+02 0.0000e+00 -1.0000e+00
       -6  1    1    2    0  504 +5.5947650706e+01 -1.3368618127e+02 +1.2047186542e+02 2.5582143194e+02 1.7300000000e+02 0.0000e+00 1.0000e+00
       21  1    1    2  504  502 -6.3500703801e+01 +2.1736046514e+01 +3.5776460292e+01 7.6057545400e+01 0.0000000000e+00 0.0000e+00 1.0000e+00
       21  1    1    2  505  501 -5.3793642138e-02 -2.7797511015e+01 -2.4115523531e+01 3.6800312330e+01 0.0000000000e+00 0.0000e+00 1.0000e+00
<mgrwt>
<rscale>  4 0.22172216E+03</rscale>
<asrwt>0</asrwt>
<pdfrwt beam="1">  1       21 0.70841906E-01 0.22172216E+03</pdfrwt>
<pdfrwt beam="2">  1       21 0.27261933E-01 0.22172216E+03</pdfrwt>
<totfact> 0.22770811E+04</totfact>
</mgrwt>
</event>
<event>
 6      1 +2.5168323e+02 1.93173700e+02 7.54677100e-03 1.11910500e-01
       21 -1    0    0  501  502 +0.0000000000e+00 +0.0000000000e+00 +4.2455916910e+02 4.2455916910e+02 0.0000000000e+00 0.0000e+00 1.0000e+00
       21 -1    0    0  505  503 -0.0000000000e+00 -0.0000000000e+00 -4.9970636543e+02 4.9970636543e+02 0.0000000000e+00 0.0000e+00 -1.0000e+00
        6  1    1    2  501    0 -6.8813439677e+01 -6.0843958532e+01 +2.7539868455e+02 3.3795075414e+02 1.7300000000e+02 0.0000e+00 1.0000e+00
       -6  1    1    2    0  504 -4.8459925744e+01 +1.2228784312e+02 -1.3149299162e+01 2.1772594022e+02 1.7300000000e+02 0.0000e+00 1.0000e+00
       21  1    1    2  504  503 +2.9947610918e+01 -4.4702950282e+01 -8.1276720155e+01 9.7473680565e+01 0.0000000000e+00 0.0000e+00 -1.0000e+00
       21  1    1    2  505  502 +8.7325754503e+01 -1.6740934302e+01 -2.5611986157e+02 2.7111515961e+02 0.0000000000e+00 0.0000e+00 -1.0000e+00
<mgrwt>
<rscale>  4 0.19317374E+03</rscale>
<asrwt>0</asrwt>
<pdfrwt beam="1">  1       21 0.65316795E-01 0.19317374E+03</pdfrwt>
<pdfrwt beam="2">  1       21 0.76877902E-01 0.19317374E+03</pdfrwt>
<totfact> 0.32429350E+03</totfact>
</mgrwt>
</event>
<event>
 6      1 +2.5168323e+02 4.67838200e+02 7.54677100e-03 1.17132900e-01
       21 -1    0    0  505  502 +0.0000000000e+00 +0.0000000000e+00 +6.8671771129e+02 6.8671771129e+02 0.0000000000e+00 0.0000e+00 -1.0000e+00
       21 -1    0    0  504  503 -0.0000000000e+00 -0.0000000000e+00 -8.5880953956e+02 8.5880953956e+02 0.0000000000e+00 0.0000e+00 -1.0000e+00
        6  1    1    2  501    0 -2.6421728900e+01 +1.8373253769e+02 -1.4918749149e+02 2.9434955543e+02 1.7300000000e+02 0.0000e+00 -1.0000e+00
       -6  1    1    2    0  502 +7.9779123142e+01 -4.9508605479e+02 +2.0149326189e+02 5.6745347362e+02 1.7300000000e+02 0.0000e+00 -1.0000e+00
       21  1    1    2  504  501 -6.7697514320e-01 -6.2274859398e+01 -2.9357769256e+02 3.0011077617e+02 0.0000000000e+00 0.0000e+00 -1.0000e+00
       21  1    1    2  505  503 -5.2680419099e+01 +3.7362837650e+02 +6.9180093888e+01 3.8361344563e+02 0.0000000000e+00 0.0000e+00 -1.0000e+00
<mgrwt>
<rscale>  4 0.39451940E+03</rscale>
<asrwt>0</asrwt>
<pdfrwt beam="1">  1       21 0.10564888E+00 0.46783822E+03</pdfrwt>
<pdfrwt beam="2">  1       21 0.13212454E+00 0.46783822E+03</pdfrwt>
<totfact> 0.24328301E+02</totfact>
</mgrwt>
</event>
<event>
 6      1 +2.5168323e+02 3.15255900e+02 7.54677100e-03 1.05831300e-01
       21 -1    0    0  504  502 +0.0000000000e+00 +0.0000000000e+00 +6.3195786012e+02 6.3195786012e+02 0.0000000000e+00 0.0000e+00 -1.0000e+00
       21 -1    0    0  501  503 -0.0000000000e+00 -0.0000000000e+00 -4.8936396410e+02 4.8936396410e+02 0.0000000000e+00 0.0000e+00 1.0000e+00
        6  1    1    2  501    0 +2.0044165204e+02 +2.0702910383e+02 -2.3742872879e+02 4.1150857459e+02 1.7300000000e+02 0.0000e+00 -1.0000e+00
       -6  1    1    2    0  505 -2.7363874071e+02 -1.4126280700e+02 +1.3131694747e+02 3.7683747392e+02 1.7300000000e+02 0.0000e+00 1.0000e+00
       21  1    1    2  504  503 -1.9094997841e+01 -7.1287007968e+01 +6.9298663657e+00 7.4124756293e+01 0.0000000000e+00 0.0000e+00 1.0000e+00
       21  1    1    2  505  502 +9.2292086506e+01 +5.5207111408e+00 +2.4177581097e+02 2.5885101941e+02 0.0000000000e+00 0.0000e+00 -1.0000e+00
<mgrwt>
<rscale>  4 0.31525591E+03</rscale>
<asrwt>0</asrwt>
<pdfrwt beam="1">  1       21 0.97224286E-01 0.31525591E+03</pdfrwt>
<pdfrwt beam="2">  1       21 0.75286764E-01 0.31525591E+03</pdfrwt>
<totfact> 0.12601329E+03</totfact>
</mgrwt>
</event>
<event>
 6      1 +2.5168323e+02 1.74454700e+02 7.54677100e-03 1.17132900e-01
       21 -1    0    0  505  502 +0.0000000000e+00 +0.0000000000e+00 +2.5698670526e+02 2.5698670526e+02 0.0000000000e+00 0.0000e+00 1.0000e+00
       21 -1    0    0  504  503 -0.0000000000e+00 -0.0000000000e+00 -1.3568978478e+03 1.3568978478e+03 0.0000000000e+00 0.0000e+00 1.0000e+00
        6  1    1    2  501    0 -2.2928654014e+01 -1.6539761806e+01 +8.9174464954e+01 1.9667326228e+02 1.7300000000e+02 0.0000e+00 1.0000e+00
       -6  1    1    2    0  502 +2.1158892849e+01 -1.3028452522e+01 +3.7399355829e+01 1.7873206522e+02 1.7300000000e+02 0.0000e+00 1.0000e+00
       21  1    1    2  504  501 +2.2802631252e+01 +3.6673318592e+00 -1.1850751816e+03 1.1853002131e+03 0.0000000000e+00 0.0000e+00 1.0000e+00
       21  1    1    2  505  503 -2.1032870087e+01 +2.5900882469e+01 -4.1409781751e+01 5.3179012415e+01 0.0000000000e+00 0.0000e+00 -1.0000e+00
<mgrwt>
<rscale>  4 0.17445466E+03</rscale>
<asrwt>0</asrwt>
<pdfrwt beam="1">  1       21 0.39536417E-01 0.17445466E+03</pdfrwt>
<pdfrwt beam="2">  1       21 0.20875351E+00 0.17445466E+03</pdfrwt>
<totfact> 0.74523572E+02</totfact>
</mgrwt>
</event>
<event>
 6      1 +2.5168323e+02 2.00813500e+02 7.54677100e-03 1.11671100e-01
       21 -1    0    0  503  502 +0.0000000000e+00 +0.0000000000e+00 +1.9936636855e+03 1.9936636855e+03 0.0000000000e+00 0.0000e+00 -1.0000e+00
       21 -1    0    0  501  503 -0.0000000000e+00 -0.0000000000e+00 -3.3768441597e+02 3.3768441597e+02 0.0000000000e+00 0.0000e+00 1.0000e+00
        6  1    1    2  501    0 -1.0921619472e+02 +3.2000625258e+01 -2.7824587024e+02 3.4684576041e+02 1.7300000000e+02 0.0000e+00 1.0000e+00
       -6  1    1    2    0  504 -5.4866901916e+01 -3.2426192905e+01 +3.9884017290e+02 4.3939084928e+02 1.7300000000e+02 0.0000e+00 1.0000e+00
       21  1    1    2  504  505 +1.3700514714e+02 -2.0738266953e+01 +1.2561930640e+03 1.2638122883e+03 0.0000000000e+00 0.0000e+00 -1.0000e+00
       21  1    1    2  505  502 +2.7077949494e+01 +2.1163834600e+01 +2.7919190293e+02 2.8129920353e+02 0.0000000000e+00 0.0000e+00 -1.0000e+00
<mgrwt>
<rscale>  4 0.20081346E+03</rscale>
<asrwt>0</asrwt>
<pdfrwt beam="1">  1       21 0.30671748E+00 0.20081346E+03</pdfrwt>
<pdfrwt beam="2">  1       21 0.51951450E-01 0.20081346E+03</pdfrwt>
<totfact> 0.10839415E+02</totfact>
</mgrwt>
</event>
<event>
 6      1 +2.5168323e+02 4.37704400e+02 7.54677100e-03 1.16820100e-01
       21 -1    0    0  504  502 +0.0000000000e+00 +0.0000000000e+00 +7.8386108608e+02 7.8386108608e+02 0.0000000000e+00 0.0000e+00 -1.0000e+00
       21 -1    0    0  501  503 -0.0000000000e+00 -0.0000000000e+00 -6.0414307044e+02 6.0414307044e+02 0.0000000000e+00 0.0000e+00 1.0000e+00
        6  1    1    2  501    0 +1.2889789157e+02 -3.7247889895e+02 +5.0169870147e+01 4.3336037254e+02 1.7300000000e+02 0.0000e+00 1.0000e+00
       -6  1    1    2    0  505 -1.6670537714e+02 +3.5971856370e+02 -2.0037142352e+02 4.7672406610e+02 1.7300000000e+02 0.0000e+00 -1.0000e+00
       21  1    1    2  504  503 -9.3099117100e+00 +2.7117883476e+01 -6.9652660878e+01 7.5322952861e+01 0.0000000000e+00 0.0000e+00 -1.0000e+00
       21  1    1    2  505  502 +4.7117397276e+01 -1.4357548222e+01 +3.9957222988e+02 4.0259676502e+02 0.0000000000e+00 0.0000e+00 -1.0000e+00
<mgrwt>
<rscale>  4 0.43770439E+03</rscale>
<asrwt>0</asrwt>
<pdfrwt beam="1">  1       21 0.12059401E+00 0.43770439E+03</pdfrwt>
<pdfrwt beam="2">  1       21 0.92945088E-01 0.43770439E+03</pdfrwt>
<totfact> 0.42611200E+02</totfact>
</mgrwt>
</event>
<event>
 6      1 +2.5168323e+02 1.74840700e+02 7.54677100e-03 1.17132900e-01
       21 -1    0    0  505  502 +0.0000000000e+00 +0.0000000000e+00 +7.3939628053e+01 7.3939628053e+01 0.0000000000e+00 0.0000e+00 1.0000e+00
       21 -1    0    0  504  503 -0.0000000000e+00 -0.0000000000e+00 -4.5691572821e+03 4.5691572821e+03 0.0000000000e+00 0.0000e+00 1.0000e+00
        6  1    1    2  501    0 +9.7255176100e+00 -8.4658341744e+01 -1.3064294643e+02 2.3293389614e+02 1.7300000000e+02 0.0000e+00 1.0000e+00
       -6  1    1    2    0  502 +2.9478232150e+01 +2.7648497832e+00 -7.7207931426e+02 7.9177779590e+02 1.7300000000e+02 0.0000e+00 1.0000e+00
       21  1    1    2  504  501 -6.5655806853e+01 +6.8841282990e+00 -3.4799255915e+03 3.4805517089e+03 0.0000000000e+00 0.0000e+00 1.0000e+00
       21  1    1    2  505  503 +2.6452057093e+01 +7.5009363662e+01 -1.1256980183e+02 1.3783350916e+02 0.0000000000e+00 0.0000e+00 1.0000e+00
<mgrwt>
<rscale>  4 0.17484070E+03</rscale>
<asrwt>0</asrwt>
<pdfrwt beam="1">  1       21 0.11375329E-01 0.17484070E+03</pdfrwt>
<pdfrwt beam="2">  1       21 0.70294718E+00 0.17484070E+03</pdfrwt>
<totfact> 0.31168125E+00</totfact>
</mgrwt>
</event>
<event>
 6      1 +2.5168323e+02 1.88652000e+02 7.54677100e-03 1.09842800e-01
       21 -1    0    0  503  502 +0.0000000000e+00 +0.0000000000e+00 +4.6054276143e+02 4.6054276143e+02 0.0000000000e+00 0.0000e+00 1.0000e+00
       21 -1    0    0  501  503 -0.0000000000e+00 -0.0000000000e+00 -3.4214686921e+02 3.4214686921e+02 0.0000000000e+00 0.0000e+00 -1.0000e+00
        6  1    1    2  501    0 +7.0236032159e+01 -3.0401574625e+01 -2.2989491094e+02 2.9772138994e+02 1.7300000000e+02 0.0000e+00 -1.0000e+00
       -6  1    1    2    0  504 -3.2723917866e+01 +8.5624918079e+01 +1.0535637243e+02 2.2233183894e+02 1.7300000000e+02 0.0000e+00 1.0000e+00
       21  1    1    2  504  505 -6.8751138463e+01 -5.6620472181e+01 +9.0305906360e+01 1.2683750878e+02 0.0000000000e+00 0.0000e+00 1.0000e+00
       21  1    1    2  505  502 +3.1239024169e+01 +1.3971287267e+00 +1.5262852437e+02 1.5579889297e+02 0.0000000000e+00 0.0000e+00 1.0000e+00
<mgrwt>
<rscale>  4 0.18865205E+03</rscale>
<asrwt>0</asrwt>
<pdfrwt beam="1">  1       21 0.70852732E-01 0.18865205E+03</pdfrwt>
<pdfrwt beam="2">  1       21 0.52637980E-01 0.18865205E+03</pdfrwt>
<totfact> 0.61915097E+03</totfact>
</mgrwt>
</event>
<event>
 6      1 +2.5168323e+02 2.21399200e+02 7.54677100e-03 1.11910500e-01
       21 -1    0    0  501  502 +0.0000000000e+00 +0.0000000000e+00 +1.2275615262e+03 1.2275615262e+03 0.0000000000e+00 0.0000e+00 -1.0000e+00
       21 -1    0    0  504  503 -0.0000000000e+00 -0.0000000000e+00 -1.6203823201e+02 1.6203823201e+02 0.0000000000e+00 0.0000e+00 -1.0000e+00
        6  1    1    2  501    0 +1.2013019904e+02 -7.7122392938e+01 +1.0600268943e+03 1.0834967212e+03 1.7300000000e+02 0.0000e+00 -1.0000e+00
       -6  1    1    2    0  503 -5.1397017438e+01 +1.0163129859e+02 +9.5070752547e+00 2.0734020048e+02 1.7300000000e+02 0.0000e+00 -1.0000e+00
       21  1    1    2  504  505 -6.1162703056e+01 +6.6294052107e+00 -1.7549110902e+01 6.3974968168e+01 0.0000000000e+00 0.0000e+00 -1.0000e+00
       21  1    1    2  505  502 -7.5704785491e+00 -3.1138310865e+01 +1.3538435550e+01 3.4787868376e+01 0.0000000000e+00 0.0000e+00 -1.0000e+00
<mgrwt>
<rscale>  4 0.22139918E+03</rscale>
<asrwt>0</asrwt>
<pdfrwt beam="1">  1       21 0.18885561E+00 0.22139918E+03</pdfrwt>
<pdfrwt beam="2">  1       21 0.24928959E-01 0.22139918E+03</pdfrwt>
<totfact> 0.23517295E+03</totfact>
</mgrwt>
</event>
<event>
 6      1 +2.5168323e+02 1.86250600e+02 7.54677100e-03 1.12989000e-01
       21 -1    0    0  501  502 +0.0000000000e+00 +0.0000000000e+00 +1.2791109786e+03 1.2791109786e+03 0.0000000000e+00 0.0000e+00 -1.0000e+00
       21 -1    0    0  502  503 -0.0000000000e+00 -0.0000000000e+00 -1.2742837253e+02 1.2742837253e+02 0.0000000000e+00 0.0000e+00 -1.0000e+00
        6  1    1    2  501    0 -6.7315050274e+01 -8.2369450707e+01 +9.1577698640e+02 9.3802586916e+02 1.7300000000e+02 0.0000e+00 1.0000e+00
       -6  1    1    2    0  504 -4.0022010582e+01 -4.2477114348e+01 +1.8234061916e+02 2.5803714455e+02 1.7300000000e+02 0.0000e+00 -1.0000e+00
       21  1    1    2  504  505 +8.1458581892e+01 +8.3399017789e+01 +9.1837906613e+01 1.4840855037e+02 0.0000000000e+00 0.0000e+00 -1.0000e+00
       21  1    1    2  505  503 +2.5878478964e+01 +4.1447547267e+01 -3.8272906093e+01 6.2067787045e+01 0.0000000000e+00 0.0000e+00 -1.0000e+00
<mgrwt>
<rscale>  4 0.18625060E+03</rscale>
<asrwt>0</asrwt>
<pdfrwt beam="1">  1       21 0.19678630E+00 0.18625060E+03</pdfrwt>
<pdfrwt beam="2">  1       21 0.19604366E-01 0.18625060E+03</pdfrwt>
<totfact> 0.33955696E+03</totfact>
</mgrwt>
</event>
<event>
 6      1 +2.5168323e+02 4.19303800e+02 7.54677100e-03 1.17132900e-01
       21 -1    0    0  503  502 +0.0000000000e+00 +0.0000000000e+00 +1.1076951216e+03 1.1076951216e+03 0.0000000000e+00 0.0000e+00 1.0000e+00
       21 -1    0    0  504  503 -0.0000000000e+00 -0.0000000000e+00 -6.2261979392e+02 6.2261979392e+02 0.0000000000e+00 0.0000e+00 -1.0000e+00
        6  1    1    2  501    0 -2.3729465998e+02 -2.2380447646e+02 +3.1343691048e+01 3.7055178627e+02 1.7300000000e+02 0.0000e+00 1.0000e+00
       -6  1    1    2    0  505 +3.3430501868e+02 +2.4377043279e+02 +3.3562260569e+02 5.6013873537e+02 1.7300000000e+02 0.0000e+00 -1.0000e+00
       21  1    1    2  504  501 -5.7823941691e+01 -1.0340642778e+02 -3.2557683556e+02 3.4646323526e+02 0.0000000000e+00 0.0000e+00 -1.0000e+00
       21  1    1    2  505  502 -3.9186417013e+01 +8.3440471451e+01 +4.4368586651e+02 4.5316115863e+02 0.0000000000e+00 0.0000e+00 1.0000e+00
<mgrwt>
<rscale>  4 0.41930382E+03</rscale>
<asrwt>0</asrwt>
<pdfrwt beam="1">  1       21 0.17041463E+00 0.41930382E+03</pdfrwt>
<pdfrwt beam="2">  1       21 0.95787661E-01 0.41930382E+03</pdfrwt>
<totfact> 0.15846759E+02</totfact>
</mgrwt>
</event>
<event>
 6      1 +2.5168323e+02 1.80144300e+02 7.54677100e-03 1.11471900e-01
       21 -1    0    0  503  502 +0.0000000000e+00 +0.0000000000e+00 +1.3190742557e+03 1.3190742557e+03 0.0000000000e+00 0.0000e+00 -1.0000e+00
       21 -1    0    0  501  503 -0.0000000000e+00 -0.0000000000e+00 -6.6718550072e+01 6.6718550072e+01 0.0000000000e+00 0.0000e+00 -1.0000e+00
        6  1    1    2  501    0 +4.2931686960e+00 -6.1580959058e+01 +1.9578609164e+02 2.6846198892e+02 1.7300000000e+02 0.0000e+00 -1.0000e+00
       -6  1    1    2    0  504 +1.1096114877e+01 +3.6395333562e+01 +2.5158927895e+02 3.0769125654e+02 1.7300000000e+02 0.0000e+00 1.0000e+00
       21  1    1    2  504  505 +1.2181633108e+01 +2.5252755232e+01 +9.3211408614e+01 9.7336840548e+01 0.0000000000e+00 0.0000e+00 -1.0000e+00
       21  1    1    2  505  502 -2.7570916681e+01 -6.7129736897e-02 +7.1176892643e+02 7.1230271976e+02 0.0000000000e+00 0.0000e+00 -1.0000e+00
<mgrwt>
<rscale>  4 0.18014433E+03</rscale>
<asrwt>0</asrwt>
<pdfrwt beam="1">  1       21 0.20293448E+00 0.18014433E+03</pdfrwt>
<pdfrwt beam="2">  1       21 0.10264393E-01 0.18014433E+03</pdfrwt>
<totfact> 0.10072464E+04</totfact>
</mgrwt>
</event>
<event>
 6      1 +2.5168323e+02 1.81737000e+02 7.54677100e-03 1.16820100e-01
       21 -1    0    0  505  502 +0.0000000000e+00 +0.0000000000e+00 +1.0770219363e+03 1.0770219363e+03 0.0000000000e+00 0.0000e+00 1.0000e+00
       21 -1    0    0  504  503 -0.0000000000e+00 -0.0000000000e+00 -2.6949165108e+02 2.6949165108e+02 0.0000000000e+00 0.0000e+00 1.0000e+00
        6  1    1    2  501    0 -3.5838753206e+01 +3.2452489352e+01 +6.9907527625e+01 1.9275280209e+02 1.7300000000e+02 0.0000e+00 -1.0000e+00
       -6  1    1    2    0  503 +4.5146345061e+01 -8.0797068342e+00 -1.2900678097e+02 2.2062462163e+02 1.7300000000e+02 0.0000e+00 1.0000e+00
       21  1    1    2  504  502 +2.0922288042e+01 -1.0599824859e+01 -2.8770974045e+01 3.7119635928e+01 0.0000000000e+00 0.0000e+00 1.0000e+00
       21  1    1    2  505  501 -3.0229879897e+01 -1.3772957659e+01 +8.9540051262e+02 8.9601652775e+02 0.0000000000e+00 0.0000e+00 1.0000e+00
<mgrwt>
<rscale>  4 0.18173697E+03</rscale>
<asrwt>0</asrwt>
<pdfrwt beam="1">  1       21 0.16569568E+00 0.18173697E+03</pdfrwt>
<pdfrwt beam="2">  1       21 0.41460255E-01 0.18173697E+03</pdfrwt>
<totfact> 0.12972274E+03</totfact>
</mgrwt>
</event>
<event>
 6      1 +2.5168323e+02 1.98674900e+02 7.54677100e-03 1.09842800e-01
       21 -1    0    0  503  502 +0.0000000000e+00 +0.0000000000e+00 +3.0771937387e+02 3.0771937387e+02 0.0000000000e+00 0.0000e+00 -1.0000e+00
       21 -1    0    0  504  503 -0.0000000000e+00 -0.0000000000e+00 -4.8181311038e+02 4.8181311038e+02 0.0000000000e+00 0.0000e+00 -1.0000e+00
        6  1    1    2  501    0 -1.1120734260e+02 +8.7777011244e+01 -1.2316455976e+02 2.5528491051e+02 1.7300000000e+02 0.0000e+00 -1.0000e+00
       -6  1    1    2    0  505 -2.5427744379e+01 -9.3176234947e+01 -1.6855406218e+02 2.6013045346e+02 1.7300000000e+02 0.0000e+00 1.0000e+00
       21  1    1    2  504  501 -1.8937185350e+01 -1.8521103828e+01 -4.2183186447e+01 4.9810335221e+01 0.0000000000e+00 0.0000e+00 1.0000e+00
       21  1    1    2  505  502 +1.5557227233e+02 +2.3920327532e+01 +1.5980807188e+02 2.2430678506e+02 0.0000000000e+00 0.0000e+00 -1.0000e+00
<mgrwt>
<rscale>  4 0.19867490E+03</rscale>
<asrwt>0</asrwt>
<pdfrwt beam="1">  1       21 0.47341442E-01 0.19867490E+03</pdfrwt>
<pdfrwt beam="2">  1       21 0.74125094E-01 0.19867490E+03</pdfrwt>
<totfact> 0.69352140E+03</totfact>
</mgrwt>
</event>
<event>
 6      1 +2.5168323e+02 2.01775300e+02 7.54677100e-03 1.16820100e-01
       21 -1    0    0  505  502 +0.0000000000e+00 +0.0000000000e+00 +2.4660316338e+02 2.4660316338e+02 0.0000000000e+00 0.0000e+00 1.0000e+00
       21 -1    0    0  504  503 -0.0000000000e+00 -0.0000000000e+00 -4.3422830321e+02 4.3422830321e+02 0.0000000000e+00 0.0000e+00 1.0000e+00
        6  1    1    2  501    0 -9.7419332652e+00 +5.3397961257e+01 -4.9621697085e+01 1.8798287250e+02 1.7300000000e+02 0.0000e+00 1.0000e+00
       -6  1    1    2    0  503 +7.7420701418e+01 -1.4579756012e+02 -1.1862722356e+01 2.3941724610e+02 1.7300000000e+02 0.0000e+00 1.0000e+00
       21  1    1    2  504  502 -2.5381325660e+01 +4.3241898968e+01 -1.6861331023e+02 1.7591055087e+02 0.0000000000e+00 0.0000e+00 1.0000e+00
       21  1    1    2  505  501 -4.2297442492e+01 +4.9157699900e+01 +4.2472589838e+01 7.7520797134e+01 0.0000000000e+00 0.0000e+00 1.0000e+00
<mgrwt>
<rscale>  4 0.20177530E+03</rscale>
<asrwt>0</asrwt>
<pdfrwt beam="1">  1       21 0.37938948E-01 0.20177530E+03</pdfrwt>
<pdfrwt beam="2">  1       21 0.66804354E-01 0.20177530E+03</pdfrwt>
<totfact> 0.13674667E+04</totfact>
</mgrwt>
</event>
<event>
 6      1 +2.5168323e+02 2.01449700e+02 7.54677100e-03 1.16820100e-01
       21 -1    0    0  505  502 +0.0000000000e+00 +0.0000000000e+00 +6.8486687712e+01 6.8486687712e+01 0.0000000000e+00 0.0000e+00 -1.0000e+00
       21 -1    0    0  504  503 -0.0000000000e+00 -0.0000000000e+00 -1.7395396403e+03 1.7395396403e+03 0.0000000000e+00 0.0000e+00 -1.0000e+00
        6  1    1    2  501    0 -9.7265538834e+00 -5.1167433464e+01 -5.9992322595e+02 6.2653777949e+02 1.7300000000e+02 0.0000e+00 -1.0000e+00
       -6  1    1    2    0  503 -1.4546111610e+01 +1.6354557781e+02 -8.7891253469e+02 9.1070027397e+02 1.7300000000e+02 0.0000e+00 -1.0000e+00
       21  1    1    2  504  502 +3.8678801110e+01 -2.6533518042e+00 -1.4565307219e+02 1.5072460771e+02 0.0000000000e+00 0.0000e+00 -1.0000e+00
       21  1    1    2  505  501 -1.4406135616e+01 -1.0972479255e+02 -4.6564119749e+01 1.2006366682e+02 0.0000000000e+00 0.0000e+00 -1.0000e+00
<mgrwt>
<rscale>  4 0.20144975E+03</rscale>
<asrwt>0</asrwt>
<pdfrwt beam="1">  1       21 0.10536415E-01 0.20144975E+03</pdfrwt>
<pdfrwt beam="2">  1       21 0.26762145E+00 0.20144975E+03</pdfrwt>
<totfact> 0.38447433E+03</totfact>
</mgrwt>
</event>
<event>
 6      1 +2.5168323e+02 2.26589600e+02 7.54677100e-03 1.15942100e-01
       21 -1    0    0  504  502 +0.0000000000e+00 +0.0000000000e+00 +1.4087500925e+03 1.4087500925e+03 0.0000000000e+00 0.0000e+00 -1.0000e+00
       21 -1    0    0  501  503 -0.0000000000e+00 -0.0000000000e+00 -4.1261634893e+02 4.1261634893e+02 0.0000000000e+00 0.0000e+00 1.0000e+00
        6  1    1    2  501    0 +1.7269136052e+02 -1.3928640436e+02 +7.8604817454e+02 8.3487947701e+02 1.7300000000e+02 0.0000e+00 -1.0000e+00
       -6  1    1    2    0  502 -3.6118875597e+01 +9.4861644913e+01 +5.6573702636e+02 6.0024219099e+02 1.7300000000e+02 0.0000e+00 1.0000e+00
       21  1    1    2  504  505 -1.1523018041e+02 +4.1589170197e+01 -3.3379388652e+02 3.5556435737e+02 0.0000000000e+00 0.0000e+00 1.0000e+00
       21  1    1    2  505  503 -2.1342304516e+01 +2.8355892493e+00 -2.1857570809e+01 3.0680416068e+01 0.0000000000e+00 0.0000e+00 -1.0000e+00
<mgrwt>
<rscale>  4 0.22658961E+03</rscale>
<asrwt>0</asrwt>
<pdfrwt beam="1">  1       21 0.21673078E+00 0.22658961E+03</pdfrwt>
<pdfrwt beam="2">  1       21 0.63479439E-01 0.22658961E+03</pdfrwt>
<totfact> 0.23163030E+02</totfact>
</mgrwt>
</event>
<event>
 6      1 +2.5168323e+02 1.74379200e+02 7.54677100e-03 1.16820100e-01
       21 -1    0    0  505  502 +0.0000000000e+00 +0.0000000000e+00 +1.3045699912e+03 1.3045699912e+03 0.0000000000e+00 0.0000e+00 1.0000e+00
       21 -1    0    0  504  503 -0.0000000000e+00 -0.0000000000e+00 -2.0929095340e+02 2.0929095340e+02 0.0000000000e+00 0.0000e+00 1.0000e+00
        6  1    1    2  501    0 -4.0774011939e+01 -4.1664718593e+01 +7.0314085861e+02 7.2645339553e+02 1.7300000000e+02 0.0000e+00 1.0000e+00
       -6  1    1    2    0  503 +3.7516478271e+00 -2.4872716868e+01 -1.3429349195e+02 2.2044606798e+02 1.7300000000e+02 0.0000e+00 1.0000e+00
       21  1    1    2  504  502 +6.4567466898e+00 +8.8444365304e+01 +8.1496410547e+01 1.2043986161e+02 0.0000000000e+00 0.0000e+00 1.0000e+00
       21  1    1    2  505  501 +3.0565617422e+01 -2.1906929844e+01 +4.4493526064e+02 4.4652161953e+02 0.0000000000e+00 0.0000e+00 1.0000e+00
<mgrwt>
<rscale>  4 0.17437923E+03</rscale>
<asrwt>0</asrwt>
<pdfrwt beam="1">  1       21 0.20070307E+00 0.17437923E+03</pdfrwt>
<pdfrwt beam="2">  1       21 0.32198609E-01 0.17437923E+03</pdfrwt>
<totfact> 0.12591811E+03</totfact>
</mgrwt>
</event>
<event>
 6      1 +2.5168323e+02 2.18490300e+02 7.54677100e-03 1.05831300e-01
       21 -1    0    0  504  502 +0.0000000000e+00 +0.0000000000e+00 +7.1675953300e+02 7.1675953300e+02 0.0000000000e+00 0.0000e+00 1.0000e+00
       21 -1    0    0  501  503 -0.0000000000e+00 -0.0000000000e+00 -1.9276477187e+02 1.9276477187e+02 0.0000000000e+00 0.0000e+00 -1.0000e+00
        6  1    1    2  501    0 -1.5233373047e+02 -3.0535182521e+01 +1.0933593939e+02 2.5694612364e+02 1.7300000000e+02 0.0000e+00 -1.0000e+00
       -6  1    1    2    0  505 +9.7292133802e+01 +7.7764059702e+01 +1.8119896608e+01 2.1394003584e+02 1.7300000000e+02 0.0000e+00 -1.0000e+00
       21  1    1    2  504  503 +2.0632635899e+01 -4.3797607547e+01 +8.6133920866e+00 4.9174450828e+01 0.0000000000e+00 0.0000e+00 -1.0000e+00
       21  1    1    2  505  502 +3.4408960772e+01 -3.4312696334e+00 +3.8792553305e+02 3.8946369457e+02 0.0000000000e+00 0.0000e+00 1.0000e+00
<mgrwt>
<rscale>  4 0.21849027E+03</rscale>
<asrwt>0</asrwt>
<pdfrwt beam="1">  1       21 0.11027070E+00 0.21849027E+03</pdfrwt>
<pdfrwt beam="2">  1       21 0.29656119E-01 0.21849027E+03</pdfrwt>
<totfact> 0.69423820E+03</totfact>
</mgrwt>
</event>
<event>
 6      1 +2.5168323e+02 2.10718000e+02 7.54677100e-03 1.17132900e-01
       21 -1    0    0  505  502 +0.0000000000e+00 +0.0000000000e+00 +3.0541484264e+01 3.0541484264e+01 0.0000000000e+00 0.0000e+00 -1.0000e+00
       21 -1    0    0  504  503 -0.0000000000e+00 -0.0000000000e+00 -2.9501948052e+03 2.9501948052e+03 0.0000000000e+00 0.0000e+00 -1.0000e+00
        6  1    1    2  501    0 -1.0438365265e+02 -2.9769108469e+01 -1.3357746873e+03 1.3512975846e+03 1.7300000000e+02 0.0000e+00 -1.0000e+00
       -6  1    1    2    0  502 +1.0423963522e+02 +5.7857928874e+01 -5.7374098190e+02 6.1100012749e+02 1.7300000000e+02 0.0000e+00 -1.0000e+00
       21  1    1    2  504  501 -2.5361539322e+01 -4.0713794418e+00 -9.3690812641e+02 9.3726016727e+02 0.0000000000e+00 0.0000e+00 1.0000e+00
       21  1    1    2  505  503 +2.5505556752e+01 -2.4017440964e+01 -7.3229525230e+01 8.1178410067e+01 0.0000000000e+00 0.0000e+00 1.0000e+00
<mgrwt>
<rscale>  4 0.21071804E+03</rscale>
<asrwt>0</asrwt>
<pdfrwt beam="1">  1       21 0.46986893E-02 0.21071804E+03</pdfrwt>
<pdfrwt beam="2">  1       21 0.45387618E+00 0.21071804E+03</pdfrwt>
<totfact> 0.11403308E+03</totfact>
</mgrwt>
</event>
<event>
 6      1 +2.5168323e+02 1.73294700e+02 7.54677100e-03 1.15942100e-01
       21 -1    0    0  504  502 +0.0000000000e+00 +0.0000000000e+00 +1.4479376563e+03 1.4479376563e+03 0.0000000000e+00 0.0000e+00 -1.0000e+00
       21 -1    0    0  501  503 -0.0000000000e+00 -0.0000000000e+00 -4.0552456424e+01 4.0552456424e+01 0.0000000000e+00 0.0000e+00 -1.0000e+00
        6  1    1    2  501    0 -6.7797183885e+01 -3.2206222773e+01 +3.9759824110e+02 4.4005347431e+02 1.7300000000e+02 0.0000e+00 -1.0000e+00
       -6  1    1    2    0  505 -2.5855243130e+01 -2.4784305185e+00 +7.2979521942e+02 7.5046965196e+02 1.7300000000e+02 0.0000e+00 -1.0000e+00
       21  1    1    2  504  503 +4.6114748209e+01 +1.3636647759e+01 +1.0651166576e+02 1.1686429355e+02 0.0000000000e+00 0.0000e+00 -1.0000e+00
       21  1    1    2  505  502 +4.7537678806e+01 +2.1048005532e+01 +1.7348007359e+02 1.8110269290e+02 0.0000000000e+00 0.0000e+00 -1.0000e+00
<mgrwt>
<rscale>  4 0.17329469E+03</rscale>
<asrwt>0</asrwt>
<pdfrwt beam="1">  1       21 0.22275960E+00 0.17329469E+03</pdfrwt>
<pdfrwt beam="2">  1       21 0.62388406E-02 0.17329469E+03</pdfrwt>
<totfact> 0.18140446E+04</totfact>
</mgrwt>
</event>
<event>
 6      1 +2.5168323e+02 2.02103000e+02 7.54677100e-03 1.17132900e-01
       21 -1    0    0  505  502 +0.0000000000e+00 +0.0000000000e+00 +2.6039141519e+02 2.6039141519e+02 0.0000000000e+00 0.0000e+00 -1.0000e+00
       21 -1    0    0  504  503 -0.0000000000e+00 -0.0000000000e+00 -2.9365157700e+02 2.9365157700e+02 0.0000000000e+00 0.0000e+00 -1.0000e+00
        6  1    1    2  501    0 +3.9793434450e+01 -9.5272870508e+01 -5.7226229718e+01 2.0943800669e+02 1.7300000000e+02 0.0000e+00 -1.0000e+00
       -6  1    1    2    0  502 -4.7712386893e+01 +9.9200057017e+01 -2.7917575275e+01 2.0694326320e+02 1.7300000000e+02 0.0000e+00 -1.0000e+00
       21  1    1    2  504  501 -1.8307079009e+01 +1.2405825749e+01 -3.7252924408e+01 4.3322442582e+01 0.0000000000e+00 0.0000e+00 -1.0000e+00
       21  1    1    2  505  503 +2.6226031452e+01 -1.6333012259e+01 +8.9136567588e+01 9.4339279712e+01 0.0000000000e+00 0.0000e+00 -1.0000e+00
<mgrwt>
<rscale>  4 0.20210300E+03</rscale>
<asrwt>0</asrwt>
<pdfrwt beam="1">  1       21 0.40060218E-01 0.20210300E+03</pdfrwt>
<pdfrwt beam="2">  1       21 0.45177165E-01 0.20210300E+03</pdfrwt>
<totfact> 0.28079203E+04</totfact>
</mgrwt>
</event>
<event>
 6      1 +2.5168323e+02 2.51473900e+02 7.54677100e-03 1.17132900e-01
       21 -1    0    0  505  502 +0.0000000000e+00 +0.0000000000e+00 +1.4771038851e+02 1.4771038851e+02 0.0000000000e+00 0.0000e+00 1.0000e+00
       21 -1    0    0  504  503 -0.0000000000e+00 -0.0000000000e+00 -1.0761784080e+03 1.0761784080e+03 0.0000000000e+00 0.0000e+00 1.0000e+00
        6  1    1    2  501    0 -1.3924253766e+02 +1.1993510572e+02 -2.5667983139e+02 3.5998117967e+02 1.7300000000e+02 0.0000e+00 1.0000e+00
       -6  1    1    2    0  502 +1.3297776041e+02 -1.3473502873e+02 -1.3555328557e+02 2.9006948471e+02 1.7300000000e+02 0.0000e+00 1.0000e+00
       21  1    1    2  504  501 -1.2382367320e+01 -3.9416459003e+01 -5.0845170802e+02 5.1012755233e+02 0.0000000000e+00 0.0000e+00 -1.0000e+00
       21  1    1    2  505  503 +1.8647144573e+01 +5.4216382018e+01 -2.7783194503e+01 6.3710579786e+01 0.0000000000e+00 0.0000e+00 -1.0000e+00
<mgrwt>
<rscale>  4 0.25147391E+03</rscale>
<asrwt>0</asrwt>
<pdfrwt beam="1">  1       21 0.22724674E-01 0.25147391E+03</pdfrwt>
<pdfrwt beam="2">  1       21 0.16556592E+00 0.25147391E+03</pdfrwt>
<totfact> 0.39742410E+03</totfact>
</mgrwt>
</event>
<event>
 6      1 +2.5168323e+02 2.75521500e+02 7.54677100e-03 1.16519500e-01
       21 -1    0    0  505  502 +0.0000000000e+00 +0.0000000000e+00 +6.8445297917e+02 6.8445297917e+02 0.0000000000e+00 0.0000e+00 -1.0000e+00
       21 -1    0    0  504  503 -0.0000000000e+00 -0.0000000000e+00 -3.1163775359e+02 3.1163775359e+02 0.0000000000e+00 0.0000e+00 1.0000e+00
        6  1    1    2  501    0 +2.0353964595e+02 +3.1348464723e+02 +5.6680895719e+01 4.1574359341e+02 1.7300000000e+02 0.0000e+00 1.0000e+00
       -6  1    1    2    0  503 -7.6430155017e+01 -1.5510560909e+02 +2.6907585634e+02 3.6363461749e+02 1.7300000000e+02 0.0000e+00 -1.0000e+00
       21  1    1    2  504  502 -1.6168090328e+01 -5.1975449142e+01 -4.3972619457e+00 5.4609434817e+01 0.0000000000e+00 0.0000e+00 1.0000e+00
       21  1    1    2  505  501 -1.1094140061e+02 -1.0640358899e+02 +5.1455735459e+01 1.6210308705e+02 0.0000000000e+00 0.0000e+00 1.0000e+00
<mgrwt>
<rscale>  4 0.27552146E+03</rscale>
<asrwt>0</asrwt>
<pdfrwt beam="1">  1       21 0.10530046E+00 0.27552146E+03</pdfrwt>
<pdfrwt beam="2">  1       21 0.47944270E-01 0.27552146E+03</pdfrwt>
<totfact> 0.28379834E+03</totfact>
</mgrwt>
</event>
<event>
 6      1 +2.5168323e+02 1.77636200e+02 7.54677100e-03 1.11471900e-01
       21 -1    0    0  503  502 +0.0000000000e+00 +0.0000000000e+00 +3.5447644638e+02 3.5447644638e+02 0.0000000000e+00 0.0000e+00 -1.0000e+00
       21 -1    0    0  501  503 -0.0000000000e+00 -0.0000000000e+00 -3.9628812062e+02 3.9628812062e+02 0.0000000000e+00 0.0000e+00 -1.0000e+00
        6  1    1    2  501    0 +3.8157000835e+01 +9.2197859798e+01 +1.8245157404e+02 2.7050689258e+02 1.7300000000e+02 0.0000e+00 -1.0000e+00
       -6  1    1    2    0  504 +6.8008073645e+00 +3.8762904123e+01 -2.4672185853e+02 3.0389058753e+02 1.7300000000e+02 0.0000e+00 1.0000e+00
       21  1    1    2  504  505 +8.8097666451e+00 -8.3768826984e+01 -2.8066631899e+01 8.8783805892e+01 0.0000000000e+00 0.0000e+00 -1.0000e+00
       21  1    1    2  505  502 -5.3767574844e+01 -4.7191936938e+01 +5.0525242141e+01 8.7583280996e+01 0.0000000000e+00 0.0000e+00 -1.0000e+00
<mgrwt>
<rscale>  4 0.17763620E+03</rscale>
<asrwt>0</asrwt>
<pdfrwt beam="1">  1       21 0.54534838E-01 0.17763620E+03</pdfrwt>
<pdfrwt beam="2">  1       21 0.60967403E-01 0.17763620E+03</pdfrwt>
<totfact> 0.80381143E+03</totfact>
</mgrwt>
</event>
<event>
 6      1 +2.5168323e+02 2.24407900e+02 7.54677100e-03 1.11910500e-01
       21 -1    0    0  501  502 +0.0000000000e+00 +0.0000000000e+00 +2.0172841380e+03 2.0172841380e+03 0.0000000000e+00 0.0000e+00 1.0000e+00
       21 -1    0    0  505  503 -0.0000000000e+00 -0.0000000000e+00 -2.5411208349e+03 2.5411208349e+03 0.0000000000e+00 0.0000e+00 -1.0000e+00
        6  1    1    2  501    0 +4.3073065857e+01 +1.4813726613e+02 +1.6455040226e+03 1.6617498088e+03 1.7300000000e+02 0.0000e+00 1.0000e+00
       -6  1    1    2    0  504 -4.8002576065e+01 -9.3371824264e+01 +3.3292282020e+02 3.8960126935e+02 1.7300000000e+02 0.0000e+00 1.0000e+00
       21  1    1    2  504  503 -4.4719779854e+01 -4.3367243526e+01 -2.1712601148e+03 2.1721535541e+03 0.0000000000e+00 0.0000e+00 -1.0000e+00
       21  1    1    2  505  502 +4.9649290062e+01 -1.1398198337e+01 -3.3100342487e+02 3.3490034071e+02 0.0000000000e+00 0.0000e+00 1.0000e+00
<mgrwt>
<rscale>  4 0.22440793E+03</rscale>
<asrwt>0</asrwt>
<pdfrwt beam="1">  1       21 0.31035141E+00 0.22440793E+03</pdfrwt>
<pdfrwt beam="2">  1       21 0.39094167E+00 0.22440793E+03</pdfrwt>
<totfact> 0.27042565E-01</totfact>
</mgrwt>
</event>
<event>
 6      1 +2.5168323e+02 2.80773200e+02 7.54677100e-03 1.11910500e-01
       21 -1    0    0  501  502 +0.0000000000e+00 +0.0000000000e+00 +2.4699456712e+03 2.4699456712e+03 0.0000000000e+00 0.0000e+00 1.0000e+00
       21 -1    0    0  504  503 -0.0000000000e+00 -0.0000000000e+00 -3.4736143821e+02 3.4736143821e+02 0.0000000000e+00 0.0000e+00 -1.0000e+00
        6  1    1    2  501    0 -6.9395759426e+01 -2.0000671010e+02 +1.6946264429e+03 1.7165390285e+03 1.7300000000e+02 0.0000e+00 1.0000e+00
       -6  1    1    2    0  503 +1.4477623207e+02 +2.0965769070e+02 +7.2251710920e+02 7.8541484436e+02 1.7300000000e+02 0.0000e+00 1.0000e+00
       21  1    1    2  504  505 -2.1020179557e+01 -1.8274818489e+00 -2.2838410565e+02 2.2935668151e+02 0.0000000000e+00 0.0000e+00 -1.0000e+00
       21  1    1    2  505  502 -5.4360293082e+01 -7.8234987526e+00 -6.6175213463e+01 8.5996555010e+01 0.0000000000e+00 0.0000e+00 -1.0000e+00
<mgrwt>
<rscale>  4 0.28077317E+03</rscale>
<asrwt>0</asrwt>
<pdfrwt beam="1">  1       21 0.37999163E+00 0.28077317E+03</pdfrwt>
<pdfrwt beam="2">  1       21 0.53440223E-01 0.28077317E+03</pdfrwt>
<totfact> 0.33345641E+01</totfact>
</mgrwt>
</event>
<event>
 6      1 +2.5168323e+02 1.73841800e+02 7.54677100e-03 1.03924000e-01
       21 -1    0    0  504  502 +0.0000000000e+00 +0.0000000000e+00 +2.2582111099e+02 2.2582111099e+02 0.0000000000e+00 0.0000e+00 1.0000e+00
       21 -1    0    0  501  503 -0.0000000000e+00 -0.0000000000e+00 -7.1547083476e+02 7.1547083476e+02 0.0000000000e+00 0.0000e+00 1.0000e+00
        6  1    1    2  501    0 +4.7251785487e+01 +1.6011207758e+01 -2.5376859444e+02 3.1115364296e+02 1.7300000000e+02 0.0000e+00 -1.0000e+00
       -6  1    1    2    0  505 +1.3910690004e+01 -1.3140749561e+01 -4.0945648590e+02 4.4491549809e+02 1.7300000000e+02 0.0000e+00 1.0000e+00
       21  1    1    2  504  503 -3.2958363271e+01 +8.8071323292e+00 +9.2756312433e+01 9.8830930308e+01 0.0000000000e+00 0.0000e+00 1.0000e+00
       21  1    1    2  505  502 -2.8204112220e+01 -1.1677590526e+01 +8.0819044129e+01 8.6391874389e+01 0.0000000000e+00 0.0000e+00 1.0000e+00
<mgrwt>
<rscale>  4 0.17384179E+03</rscale>
<asrwt>0</asrwt>
<pdfrwt beam="1">  1       21 0.34741710E-01 0.17384179E+03</pdfrwt>
<pdfrwt beam="2">  1       21 0.11007243E+00 0.17384179E+03</pdfrwt>
<totfact> 0.52880909E+03</totfact>
</mgrwt>
</event>
<event>
 6      1 +2.5168323e+02 3.69457100e+02 7.54677100e-03 1.17132900e-01
       21 -1    0    0  503  502 +0.0000000000e+00 +0.0000000000e+00 +5.0601879965e+02 5.0601879965e+02 0.0000000000e+00 0.0000e+00 -1.0000e+00
       21 -1    0    0  504  503 -0.0000000000e+00 -0.0000000000e+00 -8.1230778684e+02 8.1230778684e+02 0.0000000000e+00 0.0000e+00 1.0000e+00
        6  1    1    2  501    0 +3.7358994924e+01 +3.5269308116e+02 +2.0178971417e+02 4.4321122814e+02 1.7300000000e+02 0.0000e+00 -1.0000e+00
       -6  1    1    2    0  505 -7.8092499244e+01 -2.7471039336e+02 -5.6990220797e+02 6.6051628693e+02 1.7300000000e+02 0.0000e+00 1.0000e+00
       21  1    1    2  504  501 +3.0584126203e+01 -5.1788029350e+01 -6.2737116580e+01 8.6909922082e+01 0.0000000000e+00 0.0000e+00 -1.0000e+00
       21  1    1    2  505  502 +1.0149378117e+01 -2.6194658457e+01 +1.2456062319e+02 1.2768914934e+02 0.0000000000e+00 0.0000e+00 -1.0000e+00
<mgrwt>
<rscale>  4 0.36945706E+03</rscale>
<asrwt>0</asrwt>
<pdfrwt beam="1">  1       21 0.77849047E-01 0.36945706E+03</pdfrwt>
<pdfrwt beam="2">  1       21 0.12497043E+00 0.36945706E+03</pdfrwt>
<totfact> 0.60935876E+02</totfact>
</mgrwt>
</event>
<event>
 6      1 +2.5168323e+02 2.83283000e+02 7.54677100e-03 1.16820100e-01
       21 -1    0    0  505  502 +0.0000000000e+00 +0.0000000000e+00 +3.6079623521e+02 3.6079623521e+02 0.0000000000e+00 0.0000e+00 1.0000e+00
       21 -1    0    0  501  503 -0.0000000000e+00 -0.0000000000e+00 -8.9019947240e+02 8.9019947240e+02 0.0000000000e+00 0.0000e+00 1.0000e+00
        6  1    1    2  501    0 +6.1084395734e+01 +1.8470938760e+02 -3.2988524245e+02 4.2024056737e+02 1.7300000000e+02 0.0000e+00 1.0000e+00
       -6  1    1    2    0  502 -7.0187199444e+01 -2.1541782869e+02 +2.1436657378e+02 3.5666947141e+02 1.7300000000e+02 0.0000e+00 1.0000e+00
       21  1    1    2  504  503 -9.9308975948e+00 +4.1027332747e+01 -4.3894377823e+02 4.4096882566e+02 0.0000000000e+00 0.0000e+00 1.0000e+00
       21  1    1    2  505  504 +1.9033701304e+01 -1.0318891662e+01 +2.5059209711e+01 3.3116843174e+01 0.0000000000e+00 0.0000e+00 1.0000e+00
<mgrwt>
<rscale>  4 0.28328300E+03</rscale>
<asrwt>0</asrwt>
<pdfrwt beam="1">  1       21 0.55507114E-01 0.28328300E+03</pdfrwt>
<pdfrwt beam="2">  1       21 0.13695376E+00 0.28328300E+03</pdfrwt>
<totfact> 0.10726028E+03</totfact>
</mgrwt>
</event>
<event>
 6      1 +2.5168323e+02 2.32501800e+02 7.54677100e-03 1.16820100e-01
       21 -1    0    0  501  502 +0.0000000000e+00 +0.0000000000e+00 +4.5882345272e+02 4.5882345272e+02 0.0000000000e+00 0.0000e+00 -1.0000e+00
       21 -1    0    0  504  503 -0.0000000000e+00 -0.0000000000e+00 -3.0293949235e+02 3.0293949235e+02 0.0000000000e+00 0.0000e+00 1.0000e+00
        6  1    1    2  501    0 -4.5907288560e+01 +1.3722057479e+02 +2.0612937031e+02 3.0554096713e+02 1.7300000000e+02 0.0000e+00 -1.0000e+00
       -6  1    1    2    0  503 +1.6605813750e+02 -1.0433904958e+02 -7.1193254280e+01 2.7103398634e+02 1.7300000000e+02 0.0000e+00 1.0000e+00
       21  1    1    2  504  505 -1.0012355488e+02 -3.6652457588e+01 -4.5322855668e+01 1.1585460774e+02 0.0000000000e+00 0.0000e+00 1.0000e+00
       21  1    1    2  505  502 -2.0027294069e+01 +3.7709323827e+00 +6.6270700008e+01 6.9333383866e+01 0.0000000000e+00 0.0000e+00 1.0000e+00
<mgrwt>
<rscale>  4 0.23250180E+03</rscale>
<asrwt>0</asrwt>
<pdfrwt beam="1">  1       21 0.70588224E-01 0.23250180E+03</pdfrwt>
<pdfrwt beam="2">  1       21 0.46606076E-01 0.23250180E+03</pdfrwt>
<totfact> 0.78049042E+03</totfact>
</mgrwt>
</event>
<event>
 6      1 +2.5168323e+02 2.14803400e+02 7.54677100e-03 1.11671100e-01
       21 -1    0    0  503  502 +0.0000000000e+00 +0.0000000000e+00 +8.5256039590e+02 8.5256039590e+02 0.0000000000e+00 0.0000e+00 -1.0000e+00
       21 -1    0    0  501  503 -0.0000000000e+00 -0.0000000000e+00 -1.6013549165e+02 1.6013549165e+02 0.0000000000e+00 0.0000e+00 -1.0000e+00
        6  1    1    2  501    0 -1.2332087237e+02 -3.6639467723e+01 +3.6482246131e+01 2.1865599109e+02 1.7300000000e+02 0.0000e+00 1.0000e+00
       -6  1    1    2    0  504 +1.1472506791e+02 +5.2468157025e+01 +1.2136239787e+02 2.4611497380e+02 1.7300000000e+02 0.0000e+00 -1.0000e+00
       21  1    1    2  504  505 +5.8334679777e+01 -1.1506085492e+01 +1.7341330412e+02 1.8332348162e+02 0.0000000000e+00 0.0000e+00 -1.0000e+00
       21  1    1    2  505  502 -4.9738875316e+01 -4.3226038096e+00 +3.6116695612e+02 3.6460144105e+02 0.0000000000e+00 0.0000e+00 -1.0000e+00
<mgrwt>
<rscale>  4 0.21480341E+03</rscale>
<asrwt>0</asrwt>
<pdfrwt beam="1">  1       21 0.13116313E+00 0.21480341E+03</pdfrwt>
<pdfrwt beam="2">  1       21 0.24636230E-01 0.21480341E+03</pdfrwt>
<totfact> 0.64721823E+03</totfact>
</mgrwt>
</event>
<event>
 6      1 +2.5168323e+02 1.73041200e+02 7.54677100e-03 1.03924000e-01
       21 -1    0    0  504  502 +0.0000000000e+00 +0.0000000000e+00 +1.2762757283e+02 1.2762757283e+02 0.0000000000e+00 0.0000e+00 1.0000e+00
       21 -1    0    0  501  503 -0.0000000000e+00 -0.0000000000e+00 -9.7841163936e+02 9.7841163936e+02 0.0000000000e+00 0.0000e+00 -1.0000e+00
        6  1    1    2  501    0 -6.8361530793e+01 +7.9505377022e+00 -3.1055125582e+02 3.6208782420e+02 1.7300000000e+02 0.0000e+00 1.0000e+00
       -6  1    1    2    0  505 -4.0332990520e+01 +7.6777155931e+00 -5.7256807113e+02 5.9954056871e+02 1.7300000000e+02 0.0000e+00 -1.0000e+00
       21  1    1    2  504  503 +4.9340543269e+01 -2.0592655129e+01 -2.7380986368e+01 6.0068836095e+01 0.0000000000e+00 0.0000e+00 1.0000e+00
       21  1    1    2  505  502 +5.9353978044e+01 +4.9644018340e+00 +5.9716246796e+01 8.4341983179e+01 0.0000000000e+00 0.0000e+00 1.0000e+00
<mgrwt>
<rscale>  4 0.17304124E+03</rscale>
<asrwt>0</asrwt>
<pdfrwt beam="1">  1       21 0.19635011E-01 0.17304124E+03</pdfrwt>
<pdfrwt beam="2">  1       21 0.15052487E+00 0.17304124E+03</pdfrwt>
<totfact> 0.71909580E+03</totfact>
</mgrwt>
</event>
<event>
 6      1 +2.5168323e+02 2.12736300e+02 7.54677100e-03 1.11471900e-01
       21 -1    0    0  503  502 +0.0000000000e+00 +0.0000000000e+00 +8.7183647226e+01 8.7183647226e+01 0.0000000000e+00 0.0000e+00 1.0000e+00
       21 -1    0    0  501  503 -0.0000000000e+00 -0.0000000000e+00 -1.1434235061e+03 1.1434235061e+03 0.0000000000e+00 0.0000e+00 1.0000e+00
        6  1    1    2  501    0 +1.2727843501e+01 +1.4128822820e+02 -5.8524313141e+02 6.2654838942e+02 1.7300000000e+02 0.0000e+00 1.0000e+00
       -6  1    1    2    0  505 -8.5014247025e+00 -1.0374085301e+02 -4.2925454836e+02 4.7436579355e+02 1.7300000000e+02 0.0000e+00 1.0000e+00
       21  1    1    2  504  502 +3.9689490909e+01 -8.5188382395e+00 +2.2678399843e+01 4.6498775392e+01 0.0000000000e+00 0.0000e+00 1.0000e+00
       21  1    1    2  505  504 -4.3915909707e+01 -2.9028536951e+01 -6.4420578954e+01 8.3194194964e+01 0.0000000000e+00 0.0000e+00 1.0000e+00
<mgrwt>
<rscale>  4 0.21273634E+03</rscale>
<asrwt>0</asrwt>
<pdfrwt beam="1">  1       21 0.13412870E-01 0.21273634E+03</pdfrwt>
<pdfrwt beam="2">  1       21 0.17591130E+00 0.21273634E+03</pdfrwt>
<totfact> 0.91783075E+03</totfact>
</mgrwt>
</event>
<event>
 6      1 +2.5168323e+02 1.97692900e+02 7.54677100e-03 1.07240600e-01
       21 -1    0    0  505  502 +0.0000000000e+00 +0.0000000000e+00 +9.4472860909e+01 9.4472860909e+01 0.0000000000e+00 0.0000e+00 1.0000e+00
       21 -1    0    0  504  503 -0.0000000000e+00 -0.0000000000e+00 -8.2789014201e+02 8.2789014201e+02 0.0000000000e+00 0.0000e+00 1.0000e+00
        6  1    1    2  501    0 +3.3676169513e+01 -1.1573172501e+02 -1.0697873955e+02 2.3643469983e+02 1.7300000000e+02 0.0000e+00 1.0000e+00
       -6  1    1    2    0  502 -4.3621148187e+01 +4.9611722498e+01 -4.4177050068e+02 4.7901388587e+02 1.7300000000e+02 0.0000e+00 1.0000e+00
       21  1    1    2  504  501 +1.4740307035e+01 +2.5385466129e+01 -1.6205842992e+01 3.3530998929e+01 0.0000000000e+00 0.0000e+00 1.0000e+00
       21  1    1    2  505  503 -4.7953283616e+00 +4.0734536378e+01 -1.6846219788e+02 1.7338341830e+02 0.0000000000e+00 0.0000e+00 1.0000e+00
<mgrwt>
<rscale>  4 0.19769294E+03</rscale>
<asrwt>0</asrwt>
<pdfrwt beam="1">  1       21 0.14534286E-01 0.19769294E+03</pdfrwt>
<pdfrwt beam="2">  1       21 0.12736771E+00 0.19769294E+03</pdfrwt>
<totfact> 0.18844486E+04</totfact>
</mgrwt>
</event>
<event>
 6      1 +2.5168323e+02 1.80269500e+02 7.54677100e-03 1.17132900e-01
       21 -1    0    0  505  502 +0.0000000000e+00 +0.0000000000e+00 +1.2857518530e+03 1.2857518530e+03 0.0000000000e+00 0.0000e+00 -1.0000e+00
       21 -1    0    0  504  503 -0.0000000000e+00 -0.0000000000e+00 -1.2555428714e+02 1.2555428714e+02 0.0000000000e+00 0.0000e+00 -1.0000e+00
        6  1    1    2  501    0 +8.1570604402e+00 +7.3615294234e+01 -4.2635196739e+00 1.8823635882e+02 1.7300000000e+02 0.0000e+00 -1.0000e+00
       -6  1    1    2    0  502 +1.1727994407e+01 +1.2439811104e+01 +5.0674853835e+02 5.3573815980e+02 1.7300000000e+02 0.0000e+00 1.0000e+00
       21  1    1    2  504  501 -4.4093182758e+01 -1.8792470263e+01 +3.2188856244e+01 5.7736367833e+01 0.0000000000e+00 0.0000e+00 -1.0000e+00
       21  1    1    2  505  503 +2.4208127911e+01 -6.7262635076e+01 +6.2552369095e+02 6.2959525370e+02 0.0000000000e+00 0.0000e+00 -1.0000e+00
<mgrwt>
<rscale>  4 0.18026947E+03</rscale>
<asrwt>0</asrwt>
<pdfrwt beam="1">  1       21 0.19780797E+00 0.18026947E+03</pdfrwt>
<pdfrwt beam="2">  1       21 0.19316045E-01 0.18026947E+03</pdfrwt>
<totfact> 0.34586358E+03</totfact>
</mgrwt>
</event>
<event>
 6      1 +2.5168323e+02 2.39837400e+02 7.54677100e-03 1.11671100e-01
       21 -1    0    0  503  502 +0.0000000000e+00 +0.0000000000e+00 +1.3450239975e+03 1.3450239975e+03 0.0000000000e+00 0.0000e+00 1.0000e+00
       21 -1    0    0  501  503 -0.0000000000e+00 -0.0000000000e+00 -2.6121179702e+02 2.6121179702e+02 0.0000000000e+00 0.0000e+00 -1.0000e+00
        6  1    1    2  501    0 +1.0088361786e+02 +1.5172833502e+02 -1.0307023729e+02 2.7157221105e+02 1.7300000000e+02 0.0000e+00 -1.0000e+00
       -6  1    1    2    0  504 -1.2716695970e+02 -2.7641600101e+01 +1.6761949671e+02 2.7378968091e+02 1.7300000000e+02 0.0000e+00 1.0000e+00
       21  1    1    2  504  505 +3.4814954936e+01 -1.7570562562e+02 +9.7792656861e+02 9.9419561534e+02 0.0000000000e+00 0.0000e+00 1.0000e+00
       21  1    1    2  505  502 -8.5316130952e+00 +5.1618890704e+01 +4.1336372439e+01 6.6678287215e+01 0.0000000000e+00 0.0000e+00 -1.0000e+00
<mgrwt>
<rscale>  4 0.23983736E+03</rscale>
<asrwt>0</asrwt>
<pdfrwt beam="1">  1       21 0.20692677E+00 0.23983736E+03</pdfrwt>
<pdfrwt beam="2">  1       21 0.40186431E-01 0.23983736E+03</pdfrwt>
<totfact> 0.68794943E+02</totfact>
</mgrwt>
</event>
<event>
 6      1 +2.5168323e+02 2.77281000e+02 7.54677100e-03 1.16820100e-01
       21 -1    0    0  504  502 +0.0000000000e+00 +0.0000000000e+00 +6.3562679467e+02 6.3562679467e+02 0.0000000000e+00 0.0000e+00 1.0000e+00
       21 -1    0    0  501  503 -0.0000000000e+00 -0.0000000000e+00 -9.3310230624e+02 9.3310230624e+02 0.0000000000e+00 0.0000e+00 1.0000e+00
        6  1    1    2  501    0 -6.8465835968e+01 +5.6479537432e+01 -1.1792482317e+02 2.2740442556e+02 1.7300000000e+02 0.0000e+00 -1.0000e+00
       -6  1    1    2    0  505 -1.3652700807e+02 -1.0323032031e+02 -4.7045501260e+02 5.2967257985e+02 1.7300000000e+02 0.0000e+00 1.0000e+00
       21  1    1    2  504  503 -1.3042110375e+01 +2.0019996422e+01 -2.3786891735e+02 2.3906592970e+02 0.0000000000e+00 0.0000e+00 -1.0000e+00
       21  1    1    2  505  502 +2.1803495441e+02 +2.6730786460e+01 +5.2877324155e+02 5.7258616580e+02 0.0000000000e+00 0.0000e+00 1.0000e+00
<mgrwt>
<rscale>  4 0.25460144E+03</rscale>
<asrwt>0</asrwt>
<pdfrwt beam="1">  1       21 0.97788738E-01 0.27728095E+03</pdfrwt>
<pdfrwt beam="2">  1       21 0.14355420E+00 0.27728095E+03</pdfrwt>
<totfact> 0.26610114E+02</totfact>
</mgrwt>
</event>
<event>
 6      1 +2.5168323e+02 3.29079600e+02 7.54677100e-03 1.07064900e-01
       21 -1    0    0  505  502 +0.0000000000e+00 +0.0000000000e+00 +5.7253778233e+02 5.7253778233e+02 0.0000000000e+00 0.0000e+00 1.0000e+00
       21 -1    0    0  501  503 -0.0000000000e+00 -0.0000000000e+00 -4.2900128034e+02 4.2900128034e+02 0.0000000000e+00 0.0000e+00 1.0000e+00
        6  1    1    2  501    0 +2.1420009387e+02 -6.7271539032e+01 -1.7738298412e+02 3.3436636080e+02 1.7300000000e+02 0.0000e+00 1.0000e+00
       -6  1    1    2    0  502 +7.8758491097e+01 +1.2453466208e+02 +1.7226137264e+00 2.2725261138e+02 1.7300000000e+02 0.0000e+00 -1.0000e+00
       21  1    1    2  504  503 -2.7169546764e+02 -4.1085444475e+01 +2.7852615799e+02 3.9125856102e+02 0.0000000000e+00 0.0000e+00 1.0000e+00
       21  1    1    2  505  504 -2.1263117330e+01 -1.6177678577e+01 +4.0670714386e+01 4.8661529481e+01 0.0000000000e+00 0.0000e+00 1.0000e+00
<mgrwt>
<rscale>  4 0.29998518E+03</rscale>
<asrwt>0</asrwt>
<pdfrwt beam="1">  1       21 0.88082736E-01 0.32907957E+03</pdfrwt>
<pdfrwt beam="2">  1       21 0.66000197E-01 0.32907957E+03</pdfrwt>
<totfact> 0.21196131E+03</totfact>
</mgrwt>
</event>
<event>
 6      1 +2.5168323e+02 2.22957000e+02 7.54677100e-03 1.17132900e-01
       21 -1    0    0  505  502 +0.0000000000e+00 +0.0000000000e+00 +4.2780632512e+02 4.2780632512e+02 0.0000000000e+00 0.0000e+00 -1.0000e+00
       21 -1    0    0  504  503 -0.0000000000e+00 -0.0000000000e+00 -4.7910713501e+02 4.7910713501e+02 0.0000000000e+00 0.0000e+00 1.0000e+00
        6  1    1    2  501    0 -7.0079601008e+01 +4.0695267339e+01 -4.9356622893e+01 1.9731277578e+02 1.7300000000e+02 0.0000e+00 -1.0000e+00
       -6  1    1    2    0  502 +2.2541761670e+02 -1.2910009455e+01 -6.1040425322e+01 2.9092044237e+02 1.7300000000e+02 0.0000e+00 1.0000e+00
       21  1    1    2  504  501 -4.7551249379e+01 -3.1850737004e+01 -1.6246873141e+02 1.7225469355e+02 0.0000000000e+00 0.0000e+00 1.0000e+00
       21  1    1    2  505  503 -1.0778676631e+02 +4.0654791199e+00 +2.2156496973e+02 2.4642554844e+02 0.0000000000e+00 0.0000e+00 -1.0000e+00
<mgrwt>
<rscale>  4 0.22295705E+03</rscale>
<asrwt>0</asrwt>
<pdfrwt beam="1">  1       21 0.65816358E-01 0.22295705E+03</pdfrwt>
<pdfrwt beam="2">  1       21 0.73708790E-01 0.22295705E+03</pdfrwt>
<totfact> 0.34219382E+03</totfact>
</mgrwt>
</event>
<event>
 6      1 +2.5168323e+02 2.00910000e+02 7.54677100e-03 1.07064900e-01
       21 -1    0    0  504  502 +0.0000000000e+00 +0.0000000000e+00 +1.1600005047e+02 1.1600005047e+02 0.0000000000e+00 0.0000e+00 -1.0000e+00
       21 -1    0    0  501  503 -0.0000000000e+00 -0.0000000000e+00 -6.7023809917e+02 6.7023809917e+02 0.0000000000e+00 0.0000e+00 -1.0000e+00
        6  1    1    2  501    0 -1.0640639692e+02 +2.3802696416e+01 -4.2910091792e+02 4.7533723547e+02 1.7300000000e+02 0.0000e+00 -1.0000e+00
       -6  1    1    2    0  505 +8.8662494240e+01 +1.3931672363e+01 -1.0718714314e+02 2.2242574724e+02 1.7300000000e+02 0.0000e+00 -1.0000e+00
       21  1    1    2  504  503 +2.4255588889e+01 -5.6812523979e+01 -2.5661421379e+01 6.6891741048e+01 0.0000000000e+00 0.0000e+00 1.0000e+00
       21  1    1    2  505  502 -6.5116862122e+00 +1.9078155201e+01 +7.7114337357e+00 2.1583425897e+01 0.0000000000e+00 0.0000e+00 1.0000e+00
<mgrwt>
<rscale>  4 0.20091002E+03</rscale>
<asrwt>0</asrwt>
<pdfrwt beam="1">  1       21 0.17846162E-01 0.20091002E+03</pdfrwt>
<pdfrwt beam="2">  1       21 0.10311355E+00 0.20091002E+03</pdfrwt>
<totfact> 0.21655715E+04</totfact>
</mgrwt>
</event>
<event>
 6      1 +2.5168323e+02 2.05393300e+02 7.54677100e-03 1.16820100e-01
       21 -1    0    0  501  502 +0.0000000000e+00 +0.0000000000e+00 +5.4903235243e+02 5.4903235243e+02 0.0000000000e+00 0.0000e+00 1.0000e+00
       21 -1    0    0  504  503 -0.0000000000e+00 -0.0000000000e+00 -5.5667839409e+02 5.5667839409e+02 0.0000000000e+00 0.0000e+00 1.0000e+00
        6  1    1    2  501    0 +2.0938494376e+01 -1.0290260137e+02 -3.3216368213e+01 2.0508459970e+02 1.7300000000e+02 0.0000e+00 1.0000e+00
       -6  1    1    2    0  503 +1.6242742983e+00 +1.1138957954e+02 -1.0023520787e+02 2.2888069730e+02 1.7300000000e+02 0.0000e+00 1.0000e+00
       21  1    1    2  504  505 -6.0399427407e+00 +2.3318495857e+01 -2.7163056235e+02 2.7269652649e+02 0.0000000000e+00 0.0000e+00 1.0000e+00
       21  1    1    2  505  502 -1.6522825934e+01 -3.1805474028e+01 +3.9743609678e+02 3.9904892304e+02 0.0000000000e+00 0.0000e+00 1.0000e+00
<mgrwt>
<rscale>  4 0.20539333E+03</rscale>
<asrwt>0</asrwt>
<pdfrwt beam="1">  1       21 0.84466516E-01 0.20539333E+03</pdfrwt>
<pdfrwt beam="2">  1       21 0.85642830E-01 0.20539333E+03</pdfrwt>
<totfact> 0.14146162E+03</totfact>
</mgrwt>
</event>
<event>
 6      1 +2.5168323e+02 2.01459400e+02 7.54677100e-03 1.17132900e-01
       21 -1    0    0  505  502 +0.0000000000e+00 +0.0000000000e+00 +5.5856527885e+02 5.5856527885e+02 0.0000000000e+00 0.0000e+00 1.0000e+00
       21 -1    0    0  504  503 -0.0000000000e+00 -0.0000000000e+00 -4.1315037728e+02 4.1315037728e+02 0.0000000000e+00 0.0000e+00 1.0000e+00
        6  1    1    2  501    0 +3.3296805117e+00 +1.3072067468e+02 -2.4105006703e+02 3.2424237289e+02 1.7300000000e+02 0.0000e+00 1.0000e+00
       -6  1    1    2    0  502 +2.1831494686e+01 -7.7526436528e+01 +4.1763186801e+01 1.9534617041e+02 1.7300000000e+02 0.0000e+00 1.0000e+00
       21  1    1    2  504  501 -1.3554426882e+01 -2.7416639186e+01 -4.8810392890e+01 5.7600772967e+01 0.0000000000e+00 0.0000e+00 1.0000e+00
       21  1    1    2  505  503 -1.1606748315e+01 -2.5777598970e+01 +3.9351217469e+02 3.9452633986e+02 0.0000000000e+00 0.0000e+00 1.0000e+00
<mgrwt>
<rscale>  4 0.20145944E+03</rscale>
<asrwt>0</asrwt>
<pdfrwt beam="1">  1       21 0.85933120E-01 0.20145944E+03</pdfrwt>
<pdfrwt beam="2">  1       21 0.63561596E-01 0.20145944E+03</pdfrwt>
<totfact> 0.26536803E+03</totfact>
</mgrwt>
</event>
<event>
 6      1 +2.5168323e+02 3.76103000e+02 7.54677100e-03 1.03924000e-01
       21 -1    0    0  504  502 +0.0000000000e+00 +0.0000000000e+00 +1.9199706184e+02 1.9199706184e+02 0.0000000000e+00 0.0000e+00 1.0000e+00
       21 -1    0    0  501  503 -0.0000000000e+00 -0.0000000000e+00 -1.7141997461e+03 1.7141997461e+03 0.0000000000e+00 0.0000e+00 -1.0000e+00
        6  1    1    2  501    0 -4.9283955434e-01 -3.4435270211e+02 -1.2574181338e+03 1.3151457674e+03 1.7300000000e+02 0.0000e+00 -1.0000e+00
       -6  1    1    2    0  505 -8.8619433182e+01 +2.9412344529e+02 -1.9588945889e+02 4.0331586270e+02 1.7300000000e+02 0.0000e+00 -1.0000e+00
       21  1    1    2  504  503 +1.2329781791e+02 +6.1882162363e+01 -6.0594069291e+01 1.5067645852e+02 0.0000000000e+00 0.0000e+00 1.0000e+00
       21  1    1    2  505  502 -3.4185545174e+01 -1.1652905536e+01 -8.3010222901e+00 3.7058719316e+01 0.0000000000e+00 0.0000e+00 1.0000e+00
<mgrwt>
<rscale>  4 0.37610303E+03</rscale>
<asrwt>0</asrwt>
<pdfrwt beam="1">  1       21 0.29538009E-01 0.37610303E+03</pdfrwt>
<pdfrwt beam="2">  1       21 0.26372304E+00 0.37610303E+03</pdfrwt>
<totfact> 0.51185466E+02</totfact>
</mgrwt>
</event>
<event>
 6      1 +2.5168323e+02 1.81853500e+02 7.54677100e-03 1.07064900e-01
       21 -1    0    0  501  502 +0.0000000000e+00 +0.0000000000e+00 +3.1792598647e+02 3.1792598647e+02 0.0000000000e+00 0.0000e+00 -1.0000e+00
       21 -1    0    0  504  503 -0.0000000000e+00 -0.0000000000e+00 -3.4473322716e+02 3.4473322716e+02 0.0000000000e+00 0.0000e+00 -1.0000e+00
        6  1    1    2  501    0 +5.6497482051e+01 -5.3394475437e+01 -1.5086445238e+01 1.9026175736e+02 1.7300000000e+02 0.0000e+00 -1.0000e+00
       -6  1    1    2    0  503 +4.3221444451e+01 +5.5031860341e+01 -1.8984786046e+02 2.6621008439e+02 1.7300000000e+02 0.0000e+00 -1.0000e+00
       21  1    1    2  504  505 -5.1888112307e+01 +1.5762281377e+00 +6.4040085909e+01 8.2437814728e+01 0.0000000000e+00 0.0000e+00 1.0000e+00
       21  1    1    2  505  502 -4.7830814195e+01 -3.2136130415e+00 +1.1408697909e+02 1.2374955715e+02 0.0000000000e+00 0.0000e+00 -1.0000e+00
<mgrwt>
<rscale>  4 0.18185354E+03</rscale>
<asrwt>0</asrwt>
<pdfrwt beam="1">  1       21 0.48911690E-01 0.18185354E+03</pdfrwt>
<pdfrwt beam="2">  1       21 0.53035881E-01 0.18185354E+03</pdfrwt>
<totfact> 0.13529078E+04</totfact>
</mgrwt>
</event>
<event>
 6      1 +2.5168323e+02 1.97986700e+02 7.54677100e-03 1.03924000e-01
       21 -1    0    0  504  502 +0.0000000000e+00 +0.0000000000e+00 +1.4691137510e+02 1.4691137510e+02 0.0000000000e+00 0.0000e+00 1.0000e+00
       21 -1    0    0  501  503 -0.0000000000e+00 -0.0000000000e+00 -6.8870751265e+02 6.8870751265e+02 0.0000000000e+00 0.0000e+00 -1.0000e+00
        6  1    1    2  501    0 -3.4883095783e+01 -9.7636917170e+01 -2.5479937765e+02 3.2496387618e+02 1.7300000000e+02 0.0000e+00 1.0000e+00
       -6  1    1    2    0  505 -1.1701171887e+01 +9.3772304657e+01 -2.5892596290e+02 3.2542559335e+02 1.7300000000e+02 0.0000e+00 -1.0000e+00
       21  1    1    2  504  503 +9.8194700629e+01 -4.5763587060e+01 -3.2743344306e-02 1.0833515683e+02 0.0000000000e+00 0.0000e+00 1.0000e+00
       21  1    1    2  505  502 -5.1610432959e+01 +4.9628199574e+01 -2.8038053650e+01 7.6894261396e+01 0.0000000000e+00 0.0000e+00 1.0000e+00
<mgrwt>
<rscale>  4 0.19798666E+03</rscale>
<asrwt>0</asrwt>
<pdfrwt beam="1">  1       21 0.22601750E-01 0.19798666E+03</pdfrwt>
<pdfrwt beam="2">  1       21 0.10595500E+00 0.19798666E+03</pdfrwt>
<totfact> 0.13066995E+04</totfact>
</mgrwt>
</event>
<event>
 6      1 +2.5168323e+02 2.16989200e+02 7.54677100e-03 1.07240600e-01
       21 -1    0    0  505  502 +0.0000000000e+00 +0.0000000000e+00 +7.8769417770e+02 7.8769417770e+02 0.0000000000e+00 0.0000e+00 1.0000e+00
       21 -1    0    0  504  503 -0.0000000000e+00 -0.0000000000e+00 -3.9625978941e+02 3.9625978941e+02 0.0000000000e+00 0.0000e+00 -1.0000e+00
        6  1    1    2  501    0 +1.1456557439e+02 +5.4042399893e+01 +6.0077056732e+02 6.3788723641e+02 1.7300000000e+02 0.0000e+00 1.0000e+00
       -6  1    1    2    0  502 -1.3241241391e+02 -3.5859670407e+01 -1.9961696638e+02 2.9764894857e+02 1.7300000000e+02 0.0000e+00 -1.0000e+00
       21  1    1    2  504  501 +1.6615368544e+01 -4.3998837981e+01 +1.1332056686e+02 1.2269278336e+02 0.0000000000e+00 0.0000e+00 1.0000e+00
       21  1    1    2  505  503 +1.2314709702e+00 +2.5816108496e+01 -1.2303977950e+02 1.2572499877e+02 0.0000000000e+00 0.0000e+00 1.0000e+00
<mgrwt>
<rscale>  4 0.21698921E+03</rscale>
<asrwt>0</asrwt>
<pdfrwt beam="1">  1       21 0.12118372E+00 0.21698921E+03</pdfrwt>
<pdfrwt beam="2">  1       21 0.60963045E-01 0.21698921E+03</pdfrwt>
<totfact> 0.12609936E+03</totfact>
</mgrwt>
</event>
<event>
 6      1 +2.5168323e+02 2.10227200e+02 7.54677100e-03 1.11471900e-01
       21 -1    0    0  503  502 +0.0000000000e+00 +0.0000000000e+00 +2.6639301000e+02 2.6639301000e+02 0.0000000000e+00 0.0000e+00 1.0000e+00
       21 -1    0    0  501  503 -0.0000000000e+00 -0.0000000000e+00 -4.1145567916e+02 4.1145567916e+02 0.0000000000e+00 0.0000e+00 1.0000e+00
        6  1    1    2  501    0 +2.8609891998e+01 -8.2969371005e+01 -2.4414819214e+02 3.1183293952e+02 1.7300000000e+02 0.0000e+00 1.0000e+00
       -6  1    1    2    0  504 -8.4689745027e+01 +1.1009277107e+02 +8.2401479643e+01 2.3666806925e+02 1.7300000000e+02 0.0000e+00 1.0000e+00
       21  1    1    2  504  505 +6.7345597009e+01 -4.6413822089e-01 -3.0549690383e+01 7.3952203775e+01 0.0000000000e+00 0.0000e+00 1.0000e+00
       21  1    1    2  505  502 -1.1265743979e+01 -2.6659261846e+01 +4.7233733711e+01 5.5395476619e+01 0.0000000000e+00 0.0000e+00 1.0000e+00
<mgrwt>
<rscale>  4 0.21022715E+03</rscale>
<asrwt>0</asrwt>
<pdfrwt beam="1">  1       21 0.40983540E-01 0.21022715E+03</pdfrwt>
<pdfrwt beam="2">  1       21 0.63300873E-01 0.21022715E+03</pdfrwt>
<totfact> 0.13088570E+04</totfact>
</mgrwt>
</event>
<event>
 6      1 +2.5168323e+02 1.95835100e+02 7.54677100e-03 1.04003000e-01
       21 -1    0    0  504  502 +0.0000000000e+00 +0.0000000000e+00 +6.1752342720e+02 6.1752342720e+02 0.0000000000e+00 0.0000e+00 -1.0000e+00
       21 -1    0    0  505  503 -0.0000000000e+00 -0.0000000000e+00 -1.8246228141e+03 1.8246228141e+03 0.0000000000e+00 0.0000e+00 -1.0000e+00
        6  1    1    2  501    0 +4.8570779090e+01 +4.1970795920e+01 +5.7184236624e+02 6.0087715892e+02 1.7300000000e+02 0.0000e+00 -1.0000e+00
       -6  1    1    2    0  503 -1.1849773396e+02 -2.6073610056e+01 -1.7181904664e+03 1.7311351839e+03 1.7300000000e+02 0.0000e+00 -1.0000e+00
       21  1    1    2  504  501 +2.9715205621e+01 +3.2502138983e+00 -5.8314381384e+01 6.5529568987e+01 0.0000000000e+00 0.0000e+00 1.0000e+00
       21  1    1    2  505  502 +4.0211749250e+01 -1.9147399762e+01 -2.4369052723e+00 4.4604329416e+01 0.0000000000e+00 0.0000e+00 1.0000e+00
<mgrwt>
<rscale>  4 0.19583508E+03</rscale>
<asrwt>0</asrwt>
<pdfrwt beam="1">  1       21 0.95003605E-01 0.19583508E+03</pdfrwt>
<pdfrwt beam="2">  1       21 0.28071120E+00 0.19583508E+03</pdfrwt>
<totfact> 0.40610065E+01</totfact>
</mgrwt>
</event>
<event>
 6      1 +2.5168323e+02 2.05289100e+02 7.54677100e-03 1.07064900e-01
       21 -1    0    0  504  502 +0.0000000000e+00 +0.0000000000e+00 +9.1724131891e+01 9.1724131891e+01 0.0000000000e+00 0.0000e+00 -1.0000e+00
       21 -1    0    0  501  503 -0.0000000000e+00 -0.0000000000e+00 -2.5237324220e+03 2.5237324220e+03 0.0000000000e+00 0.0000e+00 -1.0000e+00
        6  1    1    2  501    0 +2.2987459314e+01 -1.3681685416e+02 -1.1360829509e+03 1.1575235402e+03 1.7300000000e+02 0.0000e+00 -1.0000e+00
       -6  1    1    2    0  505 -2.6462065966e+01 +8.7950416790e+01 -1.3184529462e+03 1.3329226114e+03 1.7300000000e+02 0.0000e+00 -1.0000e+00
       21  1    1    2  504  503 +1.5344583332e+01 +6.6414848415e+01 +5.4075516550e+01 8.7008906543e+01 0.0000000000e+00 0.0000e+00 -1.0000e+00
       21  1    1    2  505  502 -1.1869976681e+01 -1.7548411045e+01 -3.1547909623e+01 3.8001495736e+01 0.0000000000e+00 0.0000e+00 -1.0000e+00
<mgrwt>
<rscale>  4 0.20528909E+03</rscale>
<asrwt>0</asrwt>
<pdfrwt beam="1">  1       21 0.14111408E-01 0.20528909E+03</pdfrwt>
<pdfrwt beam="2">  1       21 0.38826643E+00 0.20528909E+03</pdfrwt>
<totfact> 0.44235312E+02</totfact>
</mgrwt>
</event>
<event>
 6      1 +2.5168323e+02 2.01474800e+02 7.54677100e-03 1.03924000e-01
       21 -1    0    0  503  502 +0.0000000000e+00 +0.0000000000e+00 +3.3292153197e+02 3.3292153197e+02 0.0000000000e+00 0.0000e+00 1.0000e+00
       21 -1    0    0  504  503 -0.0000000000e+00 -0.0000000000e+00 -2.9721337872e+02 2.9721337872e+02 0.0000000000e+00 0.0000e+00 1.0000e+00
        6  1    1    2  501    0 +1.0144503221e+02 -8.5579453763e+01 +1.3388433446e+02 2.5586901430e+02 1.7300000000e+02 0.0000e+00 1.0000e+00
       -6  1    1    2    0  505 -8.6750724573e+01 +4.4269254702e+01 -1.8808124370e+02 2.7347579300e+02 1.7300000000e+02 0.0000e+00 1.0000e+00
       21  1    1    2  504  501 -5.7560607462e+00 +2.2071039004e+01 +3.3502950908e+01 4.0530367844e+01 0.0000000000e+00 0.0000e+00 1.0000e+00
       21  1    1    2  505  502 -8.9382468915e+00 +1.9239160056e+01 +5.6402111578e+01 6.0259735542e+01 0.0000000000e+00 0.0000e+00 1.0000e+00
<mgrwt>
<rscale>  4 0.20147479E+03</rscale>
<asrwt>0</asrwt>
<pdfrwt beam="1">  1       21 0.51218697E-01 0.20147479E+03</pdfrwt>
<pdfrwt beam="2">  1       21 0.45725135E-01 0.20147479E+03</pdfrwt>
<totfact> 0.16523791E+04</totfact>
</mgrwt>
</event>
<event>
 6      1 +2.5168323e+02 2.09087700e+02 7.54677100e-03 1.11910500e-01
       21 -1    0    0  501  502 +0.0000000000e+00 +0.0000000000e+00 +7.1568803384e+02 7.1568803384e+02 0.0000000000e+00 0.0000e+00 1.0000e+00
       21 -1    0    0  505  503 -0.0000000000e+00 -0.0000000000e+00 -3.2012187087e+02 3.2012187087e+02 0.0000000000e+00 0.0000e+00 1.0000e+00
        6  1    1    2  501    0 +5.1970636958e+01 -8.0922412317e+01 +1.5080925922e+02 2.4884094636e+02 1.7300000000e+02 0.0000e+00 1.0000e+00
       -6  1    1    2    0  504 -1.1830004701e+02 +5.9282951574e+01 +4.8659857980e+02 5.3311963698e+02 1.7300000000e+02 0.0000e+00 1.0000e+00
       21  1    1    2  504  503 +2.5260569162e+01 +8.8087153275e+00 -4.4928028358e+01 5.2289746148e+01 0.0000000000e+00 0.0000e+00 -1.0000e+00
       21  1    1    2  505  502 +4.1068840887e+01 +1.2830745415e+01 -1.9691364768e+02 2.0155957522e+02 0.0000000000e+00 0.0000e+00 1.0000e+00
<mgrwt>
<rscale>  4 0.20908765E+03</rscale>
<asrwt>0</asrwt>
<pdfrwt beam="1">  1       21 0.11010585E+00 0.20908765E+03</pdfrwt>
<pdfrwt beam="2">  1       21 0.49249519E-01 0.20908765E+03</pdfrwt>
<totfact> 0.25258135E+03</totfact>
</mgrwt>
</event>
<event>
 6      1 +2.5168323e+02 2.00840100e+02 7.54677100e-03 1.11910500e-01
       21 -1    0    0  501  502 +0.0000000000e+00 +0.0000000000e+00 +2.9830485100e+02 2.9830485100e+02 0.0000000000e+00 0.0000e+00 -1.0000e+00
       21 -1    0    0  505  503 -0.0000000000e+00 -0.0000000000e+00 -4.8121393854e+02 4.8121393854e+02 0.0000000000e+00 0.0000e+00 -1.0000e+00
        6  1    1    2  501    0 +8.7840740466e+01 +3.9918803088e+00 +1.7214647851e+02 2.5941345543e+02 1.7300000000e+02 0.0000e+00 -1.0000e+00
       -6  1    1    2    0  504 -1.8303281159e+02 -3.4218036496e+01 -1.9371329369e+02 3.1957115685e+02 1.7300000000e+02 0.0000e+00 -1.0000e+00
       21  1    1    2  504  503 +1.7878600471e+01 -1.8642172549e+01 -5.1366682754e+01 5.7495313281e+01 0.0000000000e+00 0.0000e+00 -1.0000e+00
       21  1    1    2  505  502 +7.7313470652e+01 +4.8868328736e+01 -1.0997558961e+02 1.4303886398e+02 0.0000000000e+00 0.0000e+00 -1.0000e+00
<mgrwt>
<rscale>  4 0.20084008E+03</rscale>
<asrwt>0</asrwt>
<pdfrwt beam="1">  1       21 0.45893054E-01 0.20084008E+03</pdfrwt>
<pdfrwt beam="2">  1       21 0.74032913E-01 0.20084008E+03</pdfrwt>
<totfact> 0.74037303E+03</totfact>
</mgrwt>
</event>
<event>
 6      1 +2.5168323e+02 1.94791100e+02 7.54677100e-03 1.12989000e-01
       21 -1    0    0  505  502 +0.0000000000e+00 +0.0000000000e+00 +7.6571441623e+02 7.6571441623e+02 0.0000000000e+00 0.0000e+00 -1.0000e+00
       21 -1    0    0  501  503 -0.0000000000e+00 -0.0000000000e+00 -4.7195044890e+02 4.7195044890e+02 0.0000000000e+00 0.0000e+00 1.0000e+00
        6  1    1    2  501    0 +9.1521798171e+01 +1.0235151501e+02 -9.6213367230e+01 2.4091094662e+02 1.7300000000e+02 0.0000e+00 1.0000e+00
       -6  1    1    2    0  502 +1.5162624546e+01 -8.8167095137e+01 +6.6898587168e+02 6.9675995749e+02 1.7300000000e+02 0.0000e+00 -1.0000e+00
       21  1    1    2  504  503 -4.8839372392e+01 -6.2954050796e+00 -9.5903477914e+01 1.0780720522e+02 0.0000000000e+00 0.0000e+00 1.0000e+00
       21  1    1    2  505  504 -5.7845050324e+01 -7.8890147945e+00 -1.8310505921e+02 1.9218675581e+02 0.0000000000e+00 0.0000e+00 1.0000e+00
<mgrwt>
<rscale>  4 0.19479111E+03</rscale>
<asrwt>0</asrwt>
<pdfrwt beam="1">  1       21 0.11780222E+00 0.19479111E+03</pdfrwt>
<pdfrwt beam="2">  1       21 0.72607761E-01 0.19479111E+03</pdfrwt>
<totfact> 0.94258536E+02</totfact>
</mgrwt>
</event>
<event>
 6      1 +2.5168323e+02 1.95312900e+02 7.54677100e-03 1.12989000e-01
       21 -1    0    0  501  502 +0.0000000000e+00 +0.0000000000e+00 +2.6702814743e+02 2.6702814743e+02 0.0000000000e+00 0.0000e+00 1.0000e+00
       21 -1    0    0  502  503 -0.0000000000e+00 -0.0000000000e+00 -8.0069828664e+02 8.0069828664e+02 0.0000000000e+00 0.0000e+00 -1.0000e+00
        6  1    1    2  501    0 +1.0196217424e+02 -5.4049114443e+01 +1.2467758933e+02 2.4246874650e+02 1.7300000000e+02 0.0000e+00 1.0000e+00
       -6  1    1    2    0  505 +6.0511122035e+01 +1.1010307409e+02 -9.3437368756e+01 2.3333200529e+02 1.7300000000e+02 0.0000e+00 -1.0000e+00
       21  1    1    2  504  503 -3.3742890254e+01 +7.1651437652e-01 -1.5206868250e+02 1.5576899638e+02 0.0000000000e+00 0.0000e+00 -1.0000e+00
       21  1    1    2  505  504 -1.2873040602e+02 -5.6770474023e+01 -4.1284167728e+02 4.3615668590e+02 0.0000000000e+00 0.0000e+00 -1.0000e+00
<mgrwt>
<rscale>  4 0.19531291E+03</rscale>
<asrwt>0</asrwt>
<pdfrwt beam="1">  1       21 0.41081254E-01 0.19531291E+03</pdfrwt>
<pdfrwt beam="2">  1       21 0.12318435E+00 0.19531291E+03</pdfrwt>
<totfact> 0.28171564E+03</totfact>
</mgrwt>
</event>
<event>
 6      1 +2.5168323e+02 2.57978000e+02 7.54677100e-03 1.07064900e-01
       21 -1    0    0  505  502 +0.0000000000e+00 +0.0000000000e+00 +1.6047843165e+02 1.6047843165e+02 0.0000000000e+00 0.0000e+00 1.0000e+00
       21 -1    0    0  501  503 -0.0000000000e+00 -0.0000000000e+00 -6.8155644667e+02 6.8155644667e+02 0.0000000000e+00 0.0000e+00 1.0000e+00
        6  1    1    2  501    0 +1.5499006543e+02 -1.5700674645e+02 -3.7598420703e+02 4.6900550397e+02 1.7300000000e+02 0.0000e+00 1.0000e+00
       -6  1    1    2    0  502 -1.2909346083e+02 +7.9938428844e+01 -1.2882329283e+02 2.6377967096e+02 1.7300000000e+02 0.0000e+00 1.0000e+00
       21  1    1    2  504  503 -3.5386812154e+01 +5.7042992635e+01 -3.8893767072e+01 7.7581277382e+01 0.0000000000e+00 0.0000e+00 1.0000e+00
       21  1    1    2  505  504 +9.4902075535e+00 +2.0025324972e+01 +2.2623251910e+01 3.1668426021e+01 0.0000000000e+00 0.0000e+00 1.0000e+00
<mgrwt>
<rscale>  4 0.25797799E+03</rscale>
<asrwt>0</asrwt>
<pdfrwt beam="1">  1       21 0.24688990E-01 0.25797799E+03</pdfrwt>
<pdfrwt beam="2">  1       21 0.10485484E+00 0.25797799E+03</pdfrwt>
<totfact> 0.10919588E+04</totfact>
</mgrwt>
</event>
<event>
 6      1 +2.5168323e+02 4.14603300e+02 7.54677100e-03 1.11671100e-01
       21 -1    0    0  503  502 +0.0000000000e+00 +0.0000000000e+00 +1.6070701154e+03 1.6070701154e+03 0.0000000000e+00 0.0000e+00 1.0000e+00
       21 -1    0    0  501  503 -0.0000000000e+00 -0.0000000000e+00 -1.5160924437e+02 1.5160924437e+02 0.0000000000e+00 0.0000e+00 1.0000e+00
        6  1    1    2  501    0 +1.8279152041e+02 -3.1776873362e+02 +3.2514722838e+02 5.1965318061e+02 1.7300000000e+02 0.0000e+00 1.0000e+00
       -6  1    1    2    0  504 -1.7722805449e+02 +3.5968568087e+02 +9.3063566578e+02 1.0280055033e+03 1.7300000000e+02 0.0000e+00 1.0000e+00
       21  1    1    2  504  505 +1.4355263476e+01 -3.8490119761e+01 +8.3052082639e+01 9.2656415533e+01 0.0000000000e+00 0.0000e+00 1.0000e+00
       21  1    1    2  505  502 -1.9918729393e+01 -3.4268274913e+00 +1.1662589420e+02 1.1836426033e+02 0.0000000000e+00 0.0000e+00 -1.0000e+00
<mgrwt>
<rscale>  4 0.41460331E+03</rscale>
<asrwt>0</asrwt>
<pdfrwt beam="1">  1       21 0.24724154E+00 0.41460331E+03</pdfrwt>
<pdfrwt beam="2">  1       21 0.23324500E-01 0.41460331E+03</pdfrwt>
<totfact> 0.99851023E+02</totfact>
</mgrwt>
</event>
<event>
 6      1 +2.5168323e+02 2.14732500e+02 7.54677100e-03 1.17132900e-01
       21 -1    0    0  503  502 +0.0000000000e+00 +0.0000000000e+00 +6.7813300110e+02 6.7813300110e+02 0.0000000000e+00 0.0000e+00 -1.0000e+00
       21 -1    0    0  504  503 -0.0000000000e+00 -0.0000000000e+00 -5.6134080787e+02 5.6134080787e+02 0.0000000000e+00 0.0000e+00 1.0000e+00
        6  1    1    2  501    0 -6.2417124754e+01 -1.0468424832e+02 +4.3558825456e+02 4.8427349382e+02 1.7300000000e+02 0.0000e+00 -1.0000e+00
       -6  1    1    2    0  505 +2.0513590975e+01 +1.0483781740e+02 +8.9534574427e+01 2.2216483833e+02 1.7300000000e+02 0.0000e+00 1.0000e+00
       21  1    1    2  504  501 +8.7034900249e+01 +8.9712752972e+00 -4.5743061039e+02 4.6572343828e+02 0.0000000000e+00 0.0000e+00 1.0000e+00
       21  1    1    2  505  502 -4.5131366470e+01 -9.1248443765e+00 +4.9099974636e+01 6.7312038549e+01 0.0000000000e+00 0.0000e+00 -1.0000e+00
<mgrwt>
<rscale>  4 0.21473251E+03</rscale>
<asrwt>0</asrwt>
<pdfrwt beam="1">  1       21 0.10432815E+00 0.21473251E+03</pdfrwt>
<pdfrwt beam="2">  1       21 0.86360124E-01 0.21473251E+03</pdfrwt>
<totfact> 0.83856993E+02</totfact>
</mgrwt>
</event>
<event>
 6      1 +2.5168323e+02 2.48664400e+02 7.54677100e-03 1.11910500e-01
       21 -1    0    0  501  502 +0.0000000000e+00 +0.0000000000e+00 +2.4132562352e+02 2.4132562352e+02 0.0000000000e+00 0.0000e+00 1.0000e+00
       21 -1    0    0  505  503 -0.0000000000e+00 -0.0000000000e+00 -1.5834673075e+03 1.5834673075e+03 0.0000000000e+00 0.0000e+00 1.0000e+00
        6  1    1    2  501    0 +7.1422967342e+01 -1.4945154868e+02 +1.1196884629e+02 2.6439180813e+02 1.7300000000e+02 0.0000e+00 1.0000e+00
       -6  1    1    2    0  504 -1.0827566219e+02 +2.4723212553e+02 -4.8732631908e+02 5.8332091012e+02 1.7300000000e+02 0.0000e+00 1.0000e+00
       21  1    1    2  504  503 -2.4115518880e+01 -9.6653925709e+00 -3.5773368941e+02 3.5867585729e+02 0.0000000000e+00 0.0000e+00 1.0000e+00
       21  1    1    2  505  502 +6.0968213729e+01 -8.8115184280e+01 -6.0905052176e+02 6.1840435546e+02 0.0000000000e+00 0.0000e+00 1.0000e+00
<mgrwt>
<rscale>  4 0.24866442E+03</rscale>
<asrwt>0</asrwt>
<pdfrwt beam="1">  1       21 0.37127020E-01 0.24866442E+03</pdfrwt>
<pdfrwt beam="2">  1       21 0.24361035E+00 0.24866442E+03</pdfrwt>
<totfact> 0.47543253E+02</totfact>
</mgrwt>
</event>
<event>
 6      1 +2.5168323e+02 1.90123700e+02 7.54677100e-03 1.11910500e-01
       21 -1    0    0  501  502 +0.0000000000e+00 +0.0000000000e+00 +2.3174919317e+02 2.3174919317e+02 0.0000000000e+00 0.0000e+00 1.0000e+00
       21 -1    0    0  505  503 -0.0000000000e+00 -0.0000000000e+00 -4.9628221388e+02 4.9628221388e+02 0.0000000000e+00 0.0000e+00 1.0000e+00
        6  1    1    2  501    0 +5.5306446880e+01 -2.4471831172e+01 +1.8938983794e+01 1.8424266253e+02 1.7300000000e+02 0.0000e+00 -1.0000e+00
       -6  1    1    2    0  504 -6.0235105105e+01 +8.3782999583e+01 +3.4291308749e+01 2.0433490344e+02 1.7300000000e+02 0.0000e+00 1.0000e+00
       21  1    1    2  504  503 +3.2300017408e+01 -4.9313663225e+01 -7.7208655219e+01 9.7140645180e+01 0.0000000000e+00 0.0000e+00 1.0000e+00
       21  1    1    2  505  502 -2.7371359183e+01 -9.9975051866e+00 -2.4055465803e+02 2.4231319591e+02 0.0000000000e+00 0.0000e+00 1.0000e+00
<mgrwt>
<rscale>  4 0.19012369E+03</rscale>
<asrwt>0</asrwt>
<pdfrwt beam="1">  1       21 0.35653722E-01 0.19012369E+03</pdfrwt>
<pdfrwt beam="2">  1       21 0.76351110E-01 0.19012369E+03</pdfrwt>
<totfact> 0.11607862E+04</totfact>
</mgrwt>
</event>
<event>
 6      1 +2.5168323e+02 3.68417800e+02 7.54677100e-03 1.15942100e-01
       21 -1    0    0  504  502 +0.0000000000e+00 +0.0000000000e+00 +6.0946585443e+02 6.0946585443e+02 0.0000000000e+00 0.0000e+00 1.0000e+00
       21 -1    0    0  501  503 -0.0000000000e+00 -0.0000000000e+00 -2.6077384330e+03 2.6077384330e+03 0.0000000000e+00 0.0000e+00 -1.0000e+00
        6  1    1    2  501    0 +1.2368895562e+02 +3.8055986762e+02 +2.4762759677e+02 5.0137131676e+02 1.7300000000e+02 0.0000e+00 1.0000e+00
       -6  1    1    2    0  502 +3.4076729735e+01 -2.7092902865e+02 +1.1605050543e+02 3.4345375509e+02 1.7300000000e+02 0.0000e+00 1.0000e+00
       21  1    1    2  504  505 -1.2008780525e+02 -2.4485902833e+01 -1.6158523853e+03 1.6204936197e+03 0.0000000000e+00 0.0000e+00 -1.0000e+00
       21  1    1    2  505  503 -3.7677880107e+01 -8.5144936133e+01 -7.4609829540e+02 7.5188559582e+02 0.0000000000e+00 0.0000e+00 1.0000e+00
<mgrwt>
<rscale>  4 0.36841778E+03</rscale>
<asrwt>0</asrwt>
<pdfrwt beam="1">  1       21 0.93763979E-01 0.36841778E+03</pdfrwt>
<pdfrwt beam="2">  1       21 0.40119052E+00 0.36841778E+03</pdfrwt>
<totfact> 0.62829944E+00</totfact>
</mgrwt>
</event>
<event>
 6      1 +2.5168323e+02 2.61480700e+02 7.54677100e-03 1.07064900e-01
       21 -1    0    0  505  502 +0.0000000000e+00 +0.0000000000e+00 +2.9700086271e+02 2.9700086271e+02 0.0000000000e+00 0.0000e+00 1.0000e+00
       21 -1    0    0  504  503 -0.0000000000e+00 -0.0000000000e+00 -4.2741850005e+02 4.2741850005e+02 0.0000000000e+00 0.0000e+00 1.0000e+00
        6  1    1    2  501    0 -2.8728301687e+01 -3.7487470497e+01 -1.0347394810e+01 1.7962932484e+02 1.7300000000e+02 0.0000e+00 -1.0000e+00
       -6  1    1    2    0  502 -3.9807024519e+01 +2.1808302836e+02 -8.6736173238e+00 2.8133438840e+02 1.7300000000e+02 0.0000e+00 1.0000e+00
       21  1    1    2  504  501 +2.9549983362e+01 -1.8424162160e+02 -1.2193813203e+02 2.2290599967e+02 0.0000000000e+00 0.0000e+00 1.0000e+00
       21  1    1    2  505  503 +3.8985342844e+01 +3.6460637402e+00 +1.0541506819e+01 4.0549649856e+01 0.0000000000e+00 0.0000e+00 -1.0000e+00
<mgrwt>
<rscale>  4 0.23736223E+03</rscale>
<asrwt>0</asrwt>
<pdfrwt beam="1">  1       21 0.45692441E-01 0.26148068E+03</pdfrwt>
<pdfrwt beam="2">  1       21 0.65756692E-01 0.26148068E+03</pdfrwt>
<totfact> 0.93545594E+03</totfact>
</mgrwt>
</event>
<event>
 6      1 +2.5168323e+02 2.25017400e+02 7.54677100e-03 1.15942100e-01
       21 -1    0    0  504  502 +0.0000000000e+00 +0.0000000000e+00 +1.7740922615e+03 1.7740922615e+03 0.0000000000e+00 0.0000e+00 1.0000e+00
       21 -1    0    0  501  503 -0.0000000000e+00 -0.0000000000e+00 -5.1453011599e+02 5.1453011599e+02 0.0000000000e+00 0.0000e+00 -1.0000e+00
        6  1    1    2  501    0 -1.7989504225e+02 -1.2195267396e+02 +1.2221780015e+03 1.2533486140e+03 1.7300000000e+02 0.0000e+00 1.0000e+00
       -6  1    1    2    0  502 -2.5616943211e+00 +8.9653044723e+01 +4.9928210101e+02 5.3596254263e+02 1.7300000000e+02 0.0000e+00 1.0000e+00
       21  1    1    2  504  505 +1.5298322397e+02 +2.5532559562e+01 -4.1933634839e+02 4.4710038189e+02 0.0000000000e+00 0.0000e+00 -1.0000e+00
       21  1    1    2  505  503 +2.9473512602e+01 +6.7670696764e+00 -4.2561608611e+01 5.2210838958e+01 0.0000000000e+00 0.0000e+00 -1.0000e+00
<mgrwt>
<rscale>  4 0.22501745E+03</rscale>
<asrwt>0</asrwt>
<pdfrwt beam="1">  1       21 0.27293727E+00 0.22501745E+03</pdfrwt>
<pdfrwt beam="2">  1       21 0.79158480E-01 0.22501745E+03</pdfrwt>
<totfact> 0.65526234E+01</totfact>
</mgrwt>
</event>
<event>
 6      1 +2.5168323e+02 2.50677200e+02 7.54677100e-03 9.87464100e-02
       21 -1    0    0  503  502 +0.0000000000e+00 +0.0000000000e+00 +1.9044185959e+02 1.9044185959e+02 0.0000000000e+00 0.0000e+00 1.0000e+00
       21 -1    0    0  505  503 -0.0000000000e+00 -0.0000000000e+00 -6.1791698697e+02 6.1791698697e+02 0.0000000000e+00 0.0000e+00 1.0000e+00
        6  1    1    2  501    0 -1.2487202544e+02 +1.5953288882e+01 -1.3523345358e+02 2.5310989141e+02 1.7300000000e+02 0.0000e+00 1.0000e+00
       -6  1    1    2    0  504 +2.3693449018e+02 -6.8504705518e+01 -1.4082242412e+02 3.3255195451e+02 1.7300000000e+02 0.0000e+00 1.0000e+00
       21  1    1    2  504  502 -2.4692930393e+01 +6.0873759215e+01 -2.8370867198e+01 7.1556002389e+01 0.0000000000e+00 0.0000e+00 1.0000e+00
       21  1    1    2  505  501 -8.7369534349e+01 -8.3223425799e+00 -1.2304838249e+02 1.5114099825e+02 0.0000000000e+00 0.0000e+00 1.0000e+00
<mgrwt>
<rscale>  4 0.25067724E+03</rscale>
<asrwt>0</asrwt>
<pdfrwt beam="1">  1       21 0.29298748E-01 0.25067724E+03</pdfrwt>
<pdfrwt beam="2">  1       21 0.95064151E-01 0.25067724E+03</pdfrwt>
<totfact> 0.99470052E+03</totfact>
</mgrwt>
</event>
<event>
 6      1 +2.5168323e+02 2.96894200e+02 7.54677100e-03 1.15942100e-01
       21 -1    0    0  504  502 +0.0000000000e+00 +0.0000000000e+00 +2.4662545521e+02 2.4662545521e+02 0.0000000000e+00 0.0000e+00 1.0000e+00
       21 -1    0    0  501  503 -0.0000000000e+00 -0.0000000000e+00 -5.7422211480e+02 5.7422211480e+02 0.0000000000e+00 0.0000e+00 -1.0000e+00
        6  1    1    2  501    0 -1.2853813711e+02 -2.5164881574e+02 -2.2894470217e+01 3.3211795484e+02 1.7300000000e+02 0.0000e+00 1.0000e+00
       -6  1    1    2    0  502 +4.5693325130e+01 +1.8663140433e+02 -1.5166459937e+02 2.9975041576e+02 1.7300000000e+02 0.0000e+00 -1.0000e+00
       21  1    1    2  504  505 +9.7992993549e+00 +2.1383230807e+01 -1.9095869714e+01 3.0297212211e+01 0.0000000000e+00 0.0000e+00 -1.0000e+00
       21  1    1    2  505  503 +7.3045512627e+01 +4.3634180603e+01 -1.3394172029e+02 1.5868198721e+02 0.0000000000e+00 0.0000e+00 -1.0000e+00
<mgrwt>
<rscale>  4 0.29689417E+03</rscale>
<asrwt>0</asrwt>
<pdfrwt beam="1">  1       21 0.37942378E-01 0.29689417E+03</pdfrwt>
<pdfrwt beam="2">  1       21 0.88341862E-01 0.29689417E+03</pdfrwt>
<totfact> 0.68941809E+03</totfact>
</mgrwt>
</event>
<event>
 6      1 +2.5168323e+02 2.01283600e+02 7.54677100e-03 1.16820100e-01
       21 -1    0    0  505  502 +0.0000000000e+00 +0.0000000000e+00 +2.3649922106e+02 2.3649922106e+02 0.0000000000e+00 0.0000e+00 -1.0000e+00
       21 -1    0    0  501  503 -0.0000000000e+00 -0.0000000000e+00 -9.0660309368e+02 9.0660309368e+02 0.0000000000e+00 0.0000e+00 -1.0000e+00
        6  1    1    2  501    0 +6.3819585953e+01 +9.8675445298e+01 -2.5021985691e+02 3.2611157577e+02 1.7300000000e+02 0.0000e+00 -1.0000e+00
       -6  1    1    2    0  502 -1.2820570207e+01 -1.1215910315e+02 +6.5681787829e+01 2.1676514640e+02 1.7300000000e+02 0.0000e+00 -1.0000e+00
       21  1    1    2  504  503 -3.5360711391e+01 -6.5788574770e+00 -5.3944538718e+02 5.4064312353e+02 0.0000000000e+00 0.0000e+00 -1.0000e+00
       21  1    1    2  505  504 -1.5638304354e+01 +2.0062515328e+01 +5.3879583636e+01 5.9582469042e+01 0.0000000000e+00 0.0000e+00 -1.0000e+00
<mgrwt>
<rscale>  4 0.20128361E+03</rscale>
<asrwt>0</asrwt>
<pdfrwt beam="1">  1       21 0.36384494E-01 0.20128361E+03</pdfrwt>
<pdfrwt beam="2">  1       21 0.13947740E+00 0.20128361E+03</pdfrwt>
<totfact> 0.26115205E+03</totfact>
</mgrwt>
</event>
<event>
 6      1 +2.5168323e+02 3.06815200e+02 7.54677100e-03 1.09842800e-01
       21 -1    0    0  505  502 +0.0000000000e+00 +0.0000000000e+00 +3.6188179432e+02 3.6188179432e+02 0.0000000000e+00 0.0000e+00 -1.0000e+00
       21 -1    0    0  502  503 -0.0000000000e+00 -0.0000000000e+00 -1.0112430999e+03 1.0112430999e+03 0.0000000000e+00 0.0000e+00 1.0000e+00
        6  1    1    2  501    0 +1.2738571197e+02 +1.4509552672e+02 -1.0164227573e+02 2.7846002173e+02 1.7300000000e+02 0.0000e+00 -1.0000e+00
       -6  1    1    2    0  503 -2.1866737588e+02 -1.7063374225e+02 -7.6032849665e+02 8.2762293231e+02 1.7300000000e+02 0.0000e+00 1.0000e+00
       21  1    1    2  504  501 +5.0926665247e+01 +2.1829488051e+01 +5.1336001598e+00 5.5645355892e+01 0.0000000000e+00 0.0000e+00 -1.0000e+00
       21  1    1    2  505  504 +4.0354998669e+01 +3.7087274862e+00 +2.0747586667e+02 2.1139658424e+02 0.0000000000e+00 0.0000e+00 -1.0000e+00
<mgrwt>
<rscale>  4 0.30681521E+03</rscale>
<asrwt>0</asrwt>
<pdfrwt beam="1">  1       21 0.55674123E-01 0.30681521E+03</pdfrwt>
<pdfrwt beam="2">  1       21 0.15557586E+00 0.30681521E+03</pdfrwt>
<totfact> 0.74753979E+02</totfact>
</mgrwt>
</event>
<event>
 6      1 +2.5168323e+02 3.07035800e+02 7.54677100e-03 1.15942100e-01
       21 -1    0    0  504  502 +0.0000000000e+00 +0.0000000000e+00 +6.8527959978e+02 6.8527959978e+02 0.0000000000e+00 0.0000e+00 1.0000e+00
       21 -1    0    0  501  503 -0.0000000000e+00 -0.0000000000e+00 -3.7734308301e+02 3.7734308301e+02 0.0000000000e+00 0.0000e+00 1.0000e+00
        6  1    1    2  501    0 +1.7613857649e+02 -1.2928695443e+02 +1.7885787621e+02 3.3114808560e+02 1.7300000000e+02 0.0000e+00 1.0000e+00
       -6  1    1    2    0  502 +5.2395114049e+01 -3.1743699410e-01 +3.4448389672e+02 3.8902892417e+02 1.7300000000e+02 0.0000e+00 1.0000e+00
       21  1    1    2  504  505 -2.0138020866e+02 +9.9864083245e+01 -1.7051437082e+02 2.8213821829e+02 0.0000000000e+00 0.0000e+00 1.0000e+00
       21  1    1    2  505  503 -2.7153481879e+01 +2.9740308181e+01 -4.4890885346e+01 6.0307454729e+01 0.0000000000e+00 0.0000e+00 1.0000e+00
<mgrwt>
<rscale>  4 0.26894755E+03</rscale>
<asrwt>0</asrwt>
<pdfrwt beam="1">  1       21 0.10542763E+00 0.30703577E+03</pdfrwt>
<pdfrwt beam="2">  1       21 0.58052782E-01 0.30703577E+03</pdfrwt>
<totfact> 0.18497551E+03</totfact>
</mgrwt>
</event>
<event>
 6      1 +2.5168323e+02 2.23602300e+02 7.54677100e-03 1.07240600e-01
       21 -1    0    0  505  502 +0.0000000000e+00 +0.0000000000e+00 +8.3232994158e+02 8.3232994158e+02 0.0000000000e+00 0.0000e+00 1.0000e+00
       21 -1    0    0  504  503 -0.0000000000e+00 -0.0000000000e+00 -2.5916247378e+02 2.5916247378e+02 0.0000000000e+00 0.0000e+00 -1.0000e+00
        6  1    1    2  501    0 +1.3785620230e+02 -1.1209523331e+02 +1.5874295991e+02 2.9444524307e+02 1.7300000000e+02 0.0000e+00 1.0000e+00
       -6  1    1    2    0  502 -1.1043967846e+02 +7.0887977811e+01 +5.6638379863e+02 6.0658192796e+02 1.7300000000e+02 0.0000e+00 1.0000e+00
       21  1    1    2  504  501 -7.7389480427e-01 +6.0456306567e+01 -3.6965364037e+01 7.0866085367e+01 0.0000000000e+00 0.0000e+00 -1.0000e+00
       21  1    1    2  505  503 -2.6642629034e+01 -1.9249051069e+01 -1.1499392670e+02 1.1959915897e+02 0.0000000000e+00 0.0000e+00 -1.0000e+00
<mgrwt>
<rscale>  4 0.22360227E+03</rscale>
<asrwt>0</asrwt>
<pdfrwt beam="1">  1       21 0.12805076E+00 0.22360227E+03</pdfrwt>
<pdfrwt beam="2">  1       21 0.39871150E-01 0.22360227E+03</pdfrwt>
<totfact> 0.26513565E+03</totfact>
</mgrwt>
</event>
<event>
 6      1 +2.5168323e+02 1.96897800e+02 7.54677100e-03 1.12068800e-01
       21 -1    0    0  504  502 +0.0000000000e+00 +0.0000000000e+00 +1.3791847791e+02 1.3791847791e+02 0.0000000000e+00 0.0000e+00 -1.0000e+00
       21 -1    0    0  502  503 -0.0000000000e+00 -0.0000000000e+00 -1.1031527261e+03 1.1031527261e+03 0.0000000000e+00 0.0000e+00 1.0000e+00
        6  1    1    2  501    0 -5.4200570616e+01 +3.4547761169e+01 -3.3122124891e+02 3.7916719978e+02 1.7300000000e+02 0.0000e+00 1.0000e+00
       -6  1    1    2    0  505 +7.7054253889e+01 -6.6451931584e+01 +2.0626513047e+01 2.0176141924e+02 1.7300000000e+02 0.0000e+00 -1.0000e+00
       21  1    1    2  504  501 -1.5569732522e+01 +5.0538093317e+01 -5.9264505851e+02 5.9499973178e+02 0.0000000000e+00 0.0000e+00 1.0000e+00
       21  1    1    2  505  503 -7.2839507513e+00 -1.8633922902e+01 -6.1994453822e+01 6.5142853222e+01 0.0000000000e+00 0.0000e+00 1.0000e+00
<mgrwt>
<rscale>  4 0.19689776E+03</rscale>
<asrwt>0</asrwt>
<pdfrwt beam="1">  1       21 0.21218228E-01 0.19689776E+03</pdfrwt>
<pdfrwt beam="2">  1       21 0.16971580E+00 0.19689776E+03</pdfrwt>
<totfact> 0.44128059E+03</totfact>
</mgrwt>
</event>
<event>
 6      1 +2.5168323e+02 2.88715800e+02 7.54677100e-03 1.09842800e-01
       21 -1    0    0  503  502 +0.0000000000e+00 +0.0000000000e+00 +1.5929429017e+02 1.5929429017e+02 0.0000000000e+00 0.0000e+00 -1.0000e+00
       21 -1    0    0  504  503 -0.0000000000e+00 -0.0000000000e+00 -7.3154088729e+02 7.3154088729e+02 0.0000000000e+00 0.0000e+00 1.0000e+00
        6  1    1    2  501    0 +1.4169095378e+02 -1.6110328035e+02 -1.8165932929e+02 3.3009045009e+02 1.7300000000e+02 0.0000e+00 -1.0000e+00
       -6  1    1    2    0  505 -1.5050931917e+02 +1.9076228552e+02 -3.7239743326e+02 4.7712907377e+02 1.7300000000e+02 0.0000e+00 -1.0000e+00
       21  1    1    2  504  501 +4.1473037451e+01 -1.5453585849e+01 -1.8585974242e+01 4.8002756062e+01 0.0000000000e+00 0.0000e+00 -1.0000e+00
       21  1    1    2  505  502 -3.2654672052e+01 -1.4205419325e+01 +3.9613967585e-01 3.5612897547e+01 0.0000000000e+00 0.0000e+00 -1.0000e+00
<mgrwt>
<rscale>  4 0.28871580E+03</rscale>
<asrwt>0</asrwt>
<pdfrwt beam="1">  1       21 0.24506814E-01 0.28871580E+03</pdfrwt>
<pdfrwt beam="2">  1       21 0.11254475E+00 0.28871580E+03</pdfrwt>
<totfact> 0.91717794E+03</totfact>
</mgrwt>
</event>
<event>
 6      1 +2.5168323e+02 4.02360400e+02 7.54677100e-03 1.12989000e-01
       21 -1    0    0  503  502 +0.0000000000e+00 +0.0000000000e+00 +9.2949992265e+02 9.2949992265e+02 0.0000000000e+00 0.0000e+00 -1.0000e+00
       21 -1    0    0  505  503 -0.0000000000e+00 -0.0000000000e+00 -4.0385585961e+02 4.0385585961e+02 0.0000000000e+00 0.0000e+00 1.0000e+00
        6  1    1    2  501    0 -1.2389976439e+02 +3.0737938706e+01 +6.5603807923e+01 2.2478619198e+02 1.7300000000e+02 0.0000e+00 1.0000e+00
       -6  1    1    2    0  502 +3.7652695814e+02 +8.2190679140e+01 +6.4360108363e+02 7.6985661833e+02 1.7300000000e+02 0.0000e+00 -1.0000e+00
       21  1    1    2  504  501 -1.6742114593e+02 -6.5474300713e+01 -8.0972148144e+01 1.9716290963e+02 0.0000000000e+00 0.0000e+00 1.0000e+00
       21  1    1    2  505  504 -8.5206047816e+01 -4.7454317134e+01 -1.0258868037e+02 1.4155006231e+02 0.0000000000e+00 0.0000e+00 1.0000e+00
<mgrwt>
<rscale>  4 0.34400996E+03</rscale>
<asrwt>0</asrwt>
<pdfrwt beam="1">  1       21 0.14299999E+00 0.40236041E+03</pdfrwt>
<pdfrwt beam="2">  1       21 0.62131671E-01 0.40236041E+03</pdfrwt>
<totfact> 0.69874857E+02</totfact>
</mgrwt>
</event>
<event>
 6      1 +2.5168323e+02 1.78267900e+02 7.54677100e-03 1.03924000e-01
       21 -1    0    0  504  502 +0.0000000000e+00 +0.0000000000e+00 +1.4065890821e+03 1.4065890821e+03 0.0000000000e+00 0.0000e+00 -1.0000e+00
       21 -1    0    0  501  503 -0.0000000000e+00 -0.0000000000e+00 -3.4108588301e+02 3.4108588301e+02 0.0000000000e+00 0.0000e+00 1.0000e+00
        6  1    1    2  501    0 -8.2305590087e+01 -1.5903333895e+02 +8.2099195829e+01 2.6217378018e+02 1.7300000000e+02 0.0000e+00 1.0000e+00
       -6  1    1    2    0  505 +2.1738728460e+00 +1.9299179385e+01 -2.1454266853e+02 2.7628742401e+02 1.7300000000e+02 0.0000e+00 1.0000e+00
       21  1    1    2  504  503 +4.9001367156e+01 +5.7409697581e+01 +6.2618695308e+02 6.3071951577e+02 0.0000000000e+00 0.0000e+00 -1.0000e+00
       21  1    1    2  505  502 +3.1130350085e+01 +8.2324461989e+01 +5.7175971870e+02 5.7849424515e+02 0.0000000000e+00 0.0000e+00 -1.0000e+00
<mgrwt>
<rscale>  4 0.17826788E+03</rscale>
<asrwt>0</asrwt>
<pdfrwt beam="1">  1       21 0.21639832E+00 0.17826788E+03</pdfrwt>
<pdfrwt beam="2">  1       21 0.52474752E-01 0.17826788E+03</pdfrwt>
<totfact> 0.37172757E+02</totfact>
</mgrwt>
</event>
<event>
 6      1 +2.5168323e+02 2.00492000e+02 7.54677100e-03 1.15832300e-01
       21 -1    0    0  501  502 +0.0000000000e+00 +0.0000000000e+00 +3.7316198129e+02 3.7316198129e+02 0.0000000000e+00 0.0000e+00 1.0000e+00
       21 -1    0    0  505  503 -0.0000000000e+00 -0.0000000000e+00 -1.8062242751e+02 1.8062242751e+02 0.0000000000e+00 0.0000e+00 -1.0000e+00
        6  1    1    2  501    0 -8.6168481166e+01 +3.3979230266e+01 +6.5975306575e+01 2.0702979571e+02 1.7300000000e+02 0.0000e+00 -1.0000e+00
       -6  1    1    2    0  504 +1.1204074641e+02 +3.1587901785e+01 +1.4523172038e+02 2.5411056058e+02 1.7300000000e+02 0.0000e+00 1.0000e+00
       21  1    1    2  504  503 +6.0684734883e+00 -2.0168828762e+01 +1.6653560555e+01 2.6850495401e+01 0.0000000000e+00 0.0000e+00 1.0000e+00
       21  1    1    2  505  502 -3.1940738731e+01 -4.5398303289e+01 -3.5321033734e+01 6.5793557103e+01 0.0000000000e+00 0.0000e+00 1.0000e+00
<mgrwt>
<rscale>  4 0.20049201E+03</rscale>
<asrwt>0</asrwt>
<pdfrwt beam="1">  1       21 0.57409535E-01 0.20049201E+03</pdfrwt>
<pdfrwt beam="2">  1       21 0.27788066E-01 0.20049201E+03</pdfrwt>
<totfact> 0.35062439E+04</totfact>
</mgrwt>
</event>
<event>
 6      1 +2.5168323e+02 2.47090900e+02 7.54677100e-03 1.12068800e-01
       21 -1    0    0  504  502 +0.0000000000e+00 +0.0000000000e+00 +2.8476608514e+02 2.8476608514e+02 0.0000000000e+00 0.0000e+00 1.0000e+00
       21 -1    0    0  502  503 -0.0000000000e+00 -0.0000000000e+00 -3.8375884498e+02 3.8375884498e+02 0.0000000000e+00 0.0000e+00 1.0000e+00
        6  1    1    2  501    0 -1.6464347316e+02 +4.8399733872e+01 -5.3165672344e+01 2.4941049739e+02 1.7300000000e+02 0.0000e+00 1.0000e+00
       -6  1    1    2    0  505 +1.7550106096e+02 -7.6017545123e+01 -9.1674674334e+00 2.5805490118e+02 1.7300000000e+02 0.0000e+00 1.0000e+00
       21  1    1    2  504  501 -2.7879138127e+01 +5.6772584296e+01 +4.1685637334e+01 7.5750016702e+01 0.0000000000e+00 0.0000e+00 1.0000e+00
       21  1    1    2  505  503 +1.7021550327e+01 -2.9154773045e+01 -7.8345257391e+01 8.5309514842e+01 0.0000000000e+00 0.0000e+00 1.0000e+00
<mgrwt>
<rscale>  4 0.24709089E+03</rscale>
<asrwt>0</asrwt>
<pdfrwt beam="1">  1       21 0.43810167E-01 0.24709089E+03</pdfrwt>
<pdfrwt beam="2">  1       21 0.59039822E-01 0.24709089E+03</pdfrwt>
<totfact> 0.12999091E+04</totfact>
</mgrwt>
</event>
<event>
 6      1 +2.5168323e+02 2.38924200e+02 7.54677100e-03 1.06249800e-01
       21 -1    0    0  503  502 +0.0000000000e+00 +0.0000000000e+00 +3.9380252524e+02 3.9380252524e+02 0.0000000000e+00 0.0000e+00 -1.0000e+00
       21 -1    0    0  505  503 -0.0000000000e+00 -0.0000000000e+00 -3.6636774440e+02 3.6636774440e+02 0.0000000000e+00 0.0000e+00 1.0000e+00
        6  1    1    2  501    0 -9.2403427892e+01 +5.4910579493e+01 +1.3126061973e+02 2.4230541785e+02 1.7300000000e+02 0.0000e+00 -1.0000e+00
       -6  1    1    2    0  502 +1.7753678500e+02 -4.2126403115e+01 -2.4077579983e+02 3.4813205777e+02 1.7300000000e+02 0.0000e+00 1.0000e+00
       21  1    1    2  504  501 -1.6950292003e+01 -1.3119070155e+01 +6.2667155332e+00 2.2331460416e+01 0.0000000000e+00 0.0000e+00 -1.0000e+00
       21  1    1    2  505  504 -6.8183065103e+01 +3.3489377684e-01 +1.3068324540e+02 1.4740133361e+02 0.0000000000e+00 0.0000e+00 -1.0000e+00
<mgrwt>
<rscale>  4 0.23892418E+03</rscale>
<asrwt>0</asrwt>
<pdfrwt beam="1">  1       21 0.60585004E-01 0.23892418E+03</pdfrwt>
<pdfrwt beam="2">  1       21 0.56364269E-01 0.23892418E+03</pdfrwt>
<totfact> 0.72836572E+03</totfact>
</mgrwt>
</event>
<event>
 6      1 +2.5168323e+02 1.88975900e+02 7.54677100e-03 1.16820100e-01
       21 -1    0    0  504  502 +0.0000000000e+00 +0.0000000000e+00 +6.3789179667e+02 6.3789179667e+02 0.0000000000e+00 0.0000e+00 -1.0000e+00
       21 -1    0    0  505  503 -0.0000000000e+00 -0.0000000000e+00 -2.1257191967e+02 2.1257191967e+02 0.0000000000e+00 0.0000e+00 -1.0000e+00
        6  1    1    2  501    0 +5.1175955523e+01 -1.9741234373e+01 +4.3486947539e+01 1.8662478229e+02 1.7300000000e+02 0.0000e+00 1.0000e+00
       -6  1    1    2    0  503 -8.4867696236e+01 +2.8484884117e+01 -5.6885096708e+01 2.0292567288e+02 1.7300000000e+02 0.0000e+00 -1.0000e+00
       21  1    1    2  504  501 +2.5015247726e+01 +1.1433728333e+01 +6.6625374289e+00 2.8299861614e+01 0.0000000000e+00 0.0000e+00 -1.0000e+00
       21  1    1    2  505  502 +8.6764929871e+00 -2.0177378077e+01 +4.3205548874e+02 4.3261339955e+02 0.0000000000e+00 0.0000e+00 -1.0000e+00
<mgrwt>
<rscale>  4 0.18897587E+03</rscale>
<asrwt>0</asrwt>
<pdfrwt beam="1">  1       21 0.98137199E-01 0.18897587E+03</pdfrwt>
<pdfrwt beam="2">  1       21 0.32703372E-01 0.18897587E+03</pdfrwt>
<totfact> 0.77448069E+03</totfact>
</mgrwt>
</event>
<event>
 6      1 +2.5168323e+02 1.92462800e+02 7.54677100e-03 1.16820100e-01
       21 -1    0    0  504  502 +0.0000000000e+00 +0.0000000000e+00 +2.5136355404e+02 2.5136355404e+02 0.0000000000e+00 0.0000e+00 1.0000e+00
       21 -1    0    0  501  503 -0.0000000000e+00 -0.0000000000e+00 -5.8964768130e+02 5.8964768130e+02 0.0000000000e+00 0.0000e+00 1.0000e+00
        6  1    1    2  501    0 -5.9860660316e+01 +4.2134132469e+00 -3.6629116193e+02 4.0951100939e+02 1.7300000000e+02 0.0000e+00 1.0000e+00
       -6  1    1    2    0  505 +6.8936059091e+01 -1.0734324868e+01 +1.3604030550e+02 2.3087522755e+02 1.7300000000e+02 0.0000e+00 1.0000e+00
       21  1    1    2  504  503 -2.9256451523e+01 +1.0941133549e+01 -1.5033622945e+02 1.5354683405e+02 0.0000000000e+00 0.0000e+00 1.0000e+00
       21  1    1    2  505  502 +2.0181052747e+01 -4.4202219279e+00 +4.2302958623e+01 4.7078164367e+01 0.0000000000e+00 0.0000e+00 1.0000e+00
<mgrwt>
<rscale>  4 0.19246278E+03</rscale>
<asrwt>0</asrwt>
<pdfrwt beam="1">  1       21 0.38671316E-01 0.19246278E+03</pdfrwt>
<pdfrwt beam="2">  1       21 0.90715027E-01 0.19246278E+03</pdfrwt>
<totfact> 0.66523202E+03</totfact>
</mgrwt>
</event>
<event>
 6      1 +2.5168323e+02 1.99048000e+02 7.54677100e-03 1.15832300e-01
       21 -1    0    0  501  502 +0.0000000000e+00 +0.0000000000e+00 +9.0519412493e+02 9.0519412493e+02 0.0000000000e+00 0.0000e+00 1.0000e+00
       21 -1    0    0  502  503 -0.0000000000e+00 -0.0000000000e+00 -1.7375196422e+02 1.7375196422e+02 0.0000000000e+00 0.0000e+00 1.0000e+00
        6  1    1    2  501    0 +7.8118721125e+01 +8.6948733401e+01 +6.2432601739e+02 6.5831192669e+02 1.7300000000e+02 0.0000e+00 1.0000e+00
       -6  1    1    2    0  504 -3.9748809647e+01 +7.2332196748e+01 -3.0070608893e+01 1.9402359669e+02 1.7300000000e+02 0.0000e+00 1.0000e+00
       21  1    1    2  504  505 -5.3900777416e+01 -1.0220541836e+02 +1.1613603848e+02 1.6382558037e+02 0.0000000000e+00 0.0000e+00 1.0000e+00
       21  1    1    2  505  503 +1.5530865938e+01 -5.7075511792e+01 +2.1050713730e+01 6.2784985400e+01 0.0000000000e+00 0.0000e+00 -1.0000e+00
<mgrwt>
<rscale>  4 0.19904803E+03</rscale>
<asrwt>0</asrwt>
<pdfrwt beam="1">  1       21 0.13926063E+00 0.19904803E+03</pdfrwt>
<pdfrwt beam="2">  1       21 0.26731072E-01 0.19904803E+03</pdfrwt>
<totfact> 0.48074700E+03</totfact>
</mgrwt>
</event>
<event>
 6      1 +2.5168323e+02 2.74146400e+02 7.54677100e-03 1.05831300e-01
       21 -1    0    0  504  502 +0.0000000000e+00 +0.0000000000e+00 +2.7151220230e+02 2.7151220230e+02 0.0000000000e+00 0.0000e+00 1.0000e+00
       21 -1    0    0  501  503 -0.0000000000e+00 -0.0000000000e+00 -4.9445947684e+02 4.9445947684e+02 0.0000000000e+00 0.0000e+00 1.0000e+00
        6  1    1    2  501    0 +2.2708298202e+02 -3.7737705667e+01 -3.1643303259e+02 4.2784305448e+02 1.7300000000e+02 0.0000e+00 1.0000e+00
       -6  1    1    2    0  505 -1.6936137689e+02 +1.3758624796e+01 +3.0211670843e+01 2.4436513825e+02 1.7300000000e+02 0.0000e+00 1.0000e+00
       21  1    1    2  504  503 -2.3171320171e+01 -4.7784584563e+00 +1.6200665885e+01 2.8674122808e+01 0.0000000000e+00 0.0000e+00 1.0000e+00
       21  1    1    2  505  502 -3.4550284958e+01 +2.8757539327e+01 +4.7073421318e+01 6.5089363597e+01 0.0000000000e+00 0.0000e+00 1.0000e+00
<mgrwt>
<rscale>  4 0.27414639E+03</rscale>
<asrwt>0</asrwt>
<pdfrwt beam="1">  1       21 0.41771109E-01 0.27414639E+03</pdfrwt>
<pdfrwt beam="2">  1       21 0.76070687E-01 0.27414639E+03</pdfrwt>
<totfact> 0.80811637E+03</totfact>
</mgrwt>
</event>
<event>
 6      1 +2.5168323e+02 1.92707400e+02 7.54677100e-03 1.06249800e-01
       21 -1    0    0  503  502 +0.0000000000e+00 +0.0000000000e+00 +2.6302785727e+02 2.6302785727e+02 0.0000000000e+00 0.0000e+00 -1.0000e+00
       21 -1    0    0  505  503 -0.0000000000e+00 -0.0000000000e+00 -2.0281185962e+02 2.0281185962e+02 0.0000000000e+00 0.0000e+00 1.0000e+00
        6  1    1    2  501    0 -8.0046537750e+01 -5.0729560865e+01 -2.7628736159e+01 1.9918153432e+02 1.7300000000e+02 0.0000e+00 1.0000e+00
       -6  1    1    2    0  502 +8.6522463830e+01 +8.6672265917e+00 +8.4787553120e+01 2.1137451769e+02 1.7300000000e+02 0.0000e+00 -1.0000e+00
       21  1    1    2  504  501 +1.3905410034e+01 +1.4761234117e+01 -3.5261200578e+00 2.0583682458e+01 0.0000000000e+00 0.0000e+00 1.0000e+00
       21  1    1    2  505  504 -2.0381336114e+01 +2.7301100156e+01 +6.5833007463e+00 3.4699982424e+01 0.0000000000e+00 0.0000e+00 -1.0000e+00
<mgrwt>
<rscale>  4 0.19270745E+03</rscale>
<asrwt>0</asrwt>
<pdfrwt beam="1">  1       21 0.40465824E-01 0.19270745E+03</pdfrwt>
<pdfrwt beam="2">  1       21 0.31201825E-01 0.19270745E+03</pdfrwt>
<totfact> 0.58073800E+04</totfact>
</mgrwt>
</event>
<event>
 6      1 +2.5168323e+02 2.29307000e+02 7.54677100e-03 1.09842800e-01
       21 -1    0    0  505  502 +0.0000000000e+00 +0.0000000000e+00 +2.7065284476e+02 2.7065284476e+02 0.0000000000e+00 0.0000e+00 1.0000e+00
       21 -1    0    0  502  503 -0.0000000000e+00 -0.0000000000e+00 -2.9756692924e+02 2.9756692924e+02 0.0000000000e+00 0.0000e+00 1.0000e+00
        6  1    1    2  501    0 +1.3387068057e+00 +1.1849025150e+02 +7.1911256637e+01 2.2167986076e+02 1.7300000000e+02 0.0000e+00 1.0000e+00
       -6  1    1    2    0  503 +1.9748761328e+01 -1.6507075579e+02 -1.3352663876e+02 2.7458465225e+02 1.7300000000e+02 0.0000e+00 1.0000e+00
       21  1    1    2  504  501 +4.4462497026e+00 +3.4500974310e+01 +1.8897202915e+01 3.9587758749e+01 0.0000000000e+00 0.0000e+00 1.0000e+00
       21  1    1    2  505  504 -2.5533717836e+01 +1.2079529981e+01 +1.5804094724e+01 3.2367502238e+01 0.0000000000e+00 0.0000e+00 1.0000e+00
<mgrwt>
<rscale>  4 0.22930700E+03</rscale>
<asrwt>0</asrwt>
<pdfrwt beam="1">  1       21 0.41638899E-01 0.22930700E+03</pdfrwt>
<pdfrwt beam="2">  1       21 0.45779528E-01 0.22930700E+03</pdfrwt>
<totfact> 0.24897595E+04</totfact>
</mgrwt>
</event>
<event>
 6      1 +2.5168323e+02 1.84522900e+02 7.54677100e-03 1.11671100e-01
       21 -1    0    0  503  502 +0.0000000000e+00 +0.0000000000e+00 +8.8974390706e+02 8.8974390706e+02 0.0000000000e+00 0.0000e+00 1.0000e+00
       21 -1    0    0  501  503 -0.0000000000e+00 -0.0000000000e+00 -1.8177272024e+02 1.8177272024e+02 0.0000000000e+00 0.0000e+00 1.0000e+00
        6  1    1    2  501    0 +5.2822313429e+01 +2.3475254164e+01 +3.5934042267e+02 4.0298365193e+02 1.7300000000e+02 0.0000e+00 1.0000e+00
       -6  1    1    2    0  504 -6.3655433700e+01 +2.1348790358e+01 -9.6947826914e+01 2.0936968795e+02 1.7300000000e+02 0.0000e+00 1.0000e+00
       21  1    1    2  504  505 +4.1188280368e+01 -6.2276016106e+01 +3.3287322697e+02 3.4114419511e+02 0.0000000000e+00 0.0000e+00 1.0000e+00
       21  1    1    2  505  502 -3.0355160096e+01 +1.7451971584e+01 +1.1270536409e+02 1.1801909232e+02 0.0000000000e+00 0.0000e+00 1.0000e+00
<mgrwt>
<rscale>  4 0.18452287E+03</rscale>
<asrwt>0</asrwt>
<pdfrwt beam="1">  1       21 0.13688368E+00 0.18452287E+03</pdfrwt>
<pdfrwt beam="2">  1       21 0.27965034E-01 0.18452287E+03</pdfrwt>
<totfact> 0.46630379E+03</totfact>
</mgrwt>
</event>
<event>
 6      1 +2.5168323e+02 1.90917800e+02 7.54677100e-03 1.11910500e-01
       21 -1    0    0  501  502 +0.0000000000e+00 +0.0000000000e+00 +5.1024492081e+01 5.1024492081e+01 0.0000000000e+00 0.0000e+00 -1.0000e+00
       21 -1    0    0  504  503 -0.0000000000e+00 -0.0000000000e+00 -1.0206884721e+03 1.0206884721e+03 0.0000000000e+00 0.0000e+00 -1.0000e+00
        6  1    1    2  501    0 +5.7070204406e-02 -6.8076788553e+01 -3.7342058014e+02 4.1714072214e+02 1.7300000000e+02 0.0000e+00 -1.0000e+00
       -6  1    1    2    0  503 -5.8362965413e+01 +8.5072265068e+01 -4.2932347271e+02 4.7422691851e+02 1.7300000000e+02 0.0000e+00 -1.0000e+00
       21  1    1    2  504  505 +2.8260669706e+01 +7.7786596794e+00 -6.9204729141e+01 7.5156287389e+01 0.0000000000e+00 0.0000e+00 1.0000e+00
       21  1    1    2  505  502 +3.0045225502e+01 -2.4774136195e+01 -9.7715198051e+01 1.0518903617e+02 0.0000000000e+00 0.0000e+00 -1.0000e+00
<mgrwt>
<rscale>  4 0.19091778E+03</rscale>
<asrwt>0</asrwt>
<pdfrwt beam="1">  1       21 0.78499223E-02 0.19091778E+03</pdfrwt>
<pdfrwt beam="2">  1       21 0.15702899E+00 0.19091778E+03</pdfrwt>
<totfact> 0.32865391E+04</totfact>
</mgrwt>
</event>
<event>
 6      1 +2.5168323e+02 2.56391700e+02 7.54677100e-03 1.16820100e-01
       21 -1    0    0  505  502 +0.0000000000e+00 +0.0000000000e+00 +4.0052310880e+02 4.0052310880e+02 0.0000000000e+00 0.0000e+00 -1.0000e+00
       21 -1    0    0  504  503 -0.0000000000e+00 -0.0000000000e+00 -1.2651170182e+03 1.2651170182e+03 0.0000000000e+00 0.0000e+00 -1.0000e+00
        6  1    1    2  501    0 +1.6784067275e+02 +2.3722147980e+01 -1.3665298433e+02 2.7809399465e+02 1.7300000000e+02 0.0000e+00 1.0000e+00
       -6  1    1    2    0  503 -1.5852927140e+02 -2.9557937122e+01 -6.0931295632e+02 6.5360269299e+02 1.7300000000e+02 0.0000e+00 -1.0000e+00
       21  1    1    2  504  502 -5.5697866191e+01 -2.0154829666e+01 -4.2190397384e+02 4.2604158553e+02 0.0000000000e+00 0.0000e+00 -1.0000e+00
       21  1    1    2  505  501 +4.6386464841e+01 +2.5990618808e+01 +3.0327600505e+02 3.0790185388e+02 0.0000000000e+00 0.0000e+00 -1.0000e+00
<mgrwt>
<rscale>  4 0.25639168E+03</rscale>
<asrwt>0</asrwt>
<pdfrwt beam="1">  1       21 0.61618941E-01 0.25639168E+03</pdfrwt>
<pdfrwt beam="2">  1       21 0.19463338E+00 0.25639168E+03</pdfrwt>
<totfact> 0.33179151E+02</totfact>
</mgrwt>
</event>
<event>
 6      1 +2.5168323e+02 2.78540700e+02 7.54677100e-03 1.09842800e-01
       21 -1    0    0  504  502 +0.0000000000e+00 +0.0000000000e+00 +1.6795701936e+02 1.6795701936e+02 0.0000000000e+00 0.0000e+00 -1.0000e+00
       21 -1    0    0  505  503 -0.0000000000e+00 -0.0000000000e+00 -1.4739001943e+03 1.4739001943e+03 0.0000000000e+00 0.0000e+00 -1.0000e+00
        6  1    1    2  501    0 -2.2278032669e+02 -2.5283515799e+01 -4.1192011220e+01 2.8617496732e+02 1.7300000000e+02 0.0000e+00 -1.0000e+00
       -6  1    1    2    0  503 +2.1739379283e+02 -1.6172885544e+01 -1.2357468562e+03 1.2666968525e+03 1.7300000000e+02 0.0000e+00 -1.0000e+00
       21  1    1    2  504  501 -1.8142732636e+01 -1.4316448373e+01 -3.8292801542e+00 2.3426114232e+01 0.0000000000e+00 0.0000e+00 -1.0000e+00
       21  1    1    2  505  502 +2.3529266498e+01 +5.5772849715e+01 -2.5175027361e+01 6.5559279663e+01 0.0000000000e+00 0.0000e+00 -1.0000e+00
<mgrwt>
<rscale>  4 0.27854065E+03</rscale>
<asrwt>0</asrwt>
<pdfrwt beam="1">  1       21 0.25839541E-01 0.27854065E+03</pdfrwt>
<pdfrwt beam="2">  1       21 0.22675388E+00 0.27854065E+03</pdfrwt>
<totfact> 0.11973252E+03</totfact>
</mgrwt>
</event>
<event>
 6      1 +2.5168323e+02 1.85307800e+02 7.54677100e-03 1.07240600e-01
       21 -1    0    0  505  502 +0.0000000000e+00 +0.0000000000e+00 +1.2829689234e+03 1.2829689234e+03 0.0000000000e+00 0.0000e+00 1.0000e+00
       21 -1    0    0  504  503 -0.0000000000e+00 -0.0000000000e+00 -1.8108478886e+02 1.8108478886e+02 0.0000000000e+00 0.0000e+00 1.0000e+00
        6  1    1    2  501    0 +1.1171269637e+02 -5.7324299230e+00 +3.4530342343e+02 4.0208959389e+02 1.7300000000e+02 0.0000e+00 1.0000e+00
       -6  1    1    2    0  502 -1.2763974618e+01 +7.1095087458e+01 +8.5867480306e+02 8.7890206958e+02 1.7300000000e+02 0.0000e+00 1.0000e+00
       21  1    1    2  504  501 -2.8007181477e+01 -4.4719680364e+01 +4.9477627055e+00 5.2997475241e+01 0.0000000000e+00 0.0000e+00 1.0000e+00
       21  1    1    2  505  503 -7.0941540271e+01 -2.0642977171e+01 -1.0704185466e+02 1.3006457355e+02 0.0000000000e+00 0.0000e+00 1.0000e+00
<mgrwt>
<rscale>  4 0.18530776E+03</rscale>
<asrwt>0</asrwt>
<pdfrwt beam="1">  1       21 0.19737983E+00 0.18530776E+03</pdfrwt>
<pdfrwt beam="2">  1       21 0.27859199E-01 0.18530776E+03</pdfrwt>
<totfact> 0.17309507E+03</totfact>
</mgrwt>
</event>
<event>
 6      1 +2.5168323e+02 1.79090400e+02 7.54677100e-03 1.17132900e-01
       21 -1    0    0  503  502 +0.0000000000e+00 +0.0000000000e+00 +1.6269174907e+02 1.6269174907e+02 0.0000000000e+00 0.0000e+00 -1.0000e+00
       21 -1    0    0  504  503 -0.0000000000e+00 -0.0000000000e+00 -5.5209908901e+02 5.5209908901e+02 0.0000000000e+00 0.0000e+00 -1.0000e+00
        6  1    1    2  501    0 +1.3515305080e+01 +3.9779499155e+01 -2.6396372669e+02 3.1838800391e+02 1.7300000000e+02 0.0000e+00 -1.0000e+00
       -6  1    1    2    0  505 -1.2039586629e+01 -4.9329570500e+01 -6.2175515016e+01 1.9071746863e+02 1.7300000000e+02 0.0000e+00 -1.0000e+00
       21  1    1    2  504  501 -2.5339914931e+01 +8.9672497978e+00 -1.3107316802e+02 1.3380096499e+02 0.0000000000e+00 0.0000e+00 -1.0000e+00
       21  1    1    2  505  502 +2.3864196480e+01 +5.8282154809e-01 +6.7805069790e+01 7.1884400559e+01 0.0000000000e+00 0.0000e+00 -1.0000e+00
<mgrwt>
<rscale>  4 0.17909035E+03</rscale>
<asrwt>0</asrwt>
<pdfrwt beam="1">  1       21 0.25029500E-01 0.17909035E+03</pdfrwt>
<pdfrwt beam="2">  1       21 0.84938322E-01 0.17909035E+03</pdfrwt>
<totfact> 0.18292478E+04</totfact>
</mgrwt>
</event>
<event>
 6      1 +2.5168323e+02 2.42731300e+02 7.54677100e-03 1.03924000e-01
       21 -1    0    0  501  502 +0.0000000000e+00 +0.0000000000e+00 +3.1819098361e+02 3.1819098361e+02 0.0000000000e+00 0.0000e+00 -1.0000e+00
       21 -1    0    0  502  503 -0.0000000000e+00 -0.0000000000e+00 -4.1030747497e+02 4.1030747497e+02 0.0000000000e+00 0.0000e+00 1.0000e+00
        6  1    1    2  501    0 +1.0862436029e+00 -1.3693446162e+02 +1.1676223364e+02 2.4962901656e+02 1.7300000000e+02 0.0000e+00 -1.0000e+00
       -6  1    1    2    0  505 +4.4199705193e+01 +1.7417814686e+02 -2.8709115733e+02 3.8031825278e+02 1.7300000000e+02 0.0000e+00 1.0000e+00
       21  1    1    2  504  503 -2.7007077060e+01 -1.4136140291e+01 +4.0815635274e+01 5.0942406269e+01 0.0000000000e+00 0.0000e+00 -1.0000e+00
       21  1    1    2  505  504 -1.8278871735e+01 -2.3107544953e+01 +3.7396797057e+01 4.7608782969e+01 0.0000000000e+00 0.0000e+00 -1.0000e+00
<mgrwt>
<rscale>  4 0.24273128E+03</rscale>
<asrwt>0</asrwt>
<pdfrwt beam="1">  1       21 0.48952459E-01 0.24273128E+03</pdfrwt>
<pdfrwt beam="2">  1       21 0.63124227E-01 0.24273128E+03</pdfrwt>
<totfact> 0.89541964E+03</totfact>
</mgrwt>
</event>
<event>
 6      1 +2.5168323e+02 2.36768500e+02 7.54677100e-03 1.05831300e-01
       21 -1    0    0  504  502 +0.0000000000e+00 +0.0000000000e+00 +2.4764761941e+02 2.4764761941e+02 0.0000000000e+00 0.0000e+00 -1.0000e+00
       21 -1    0    0  501  503 -0.0000000000e+00 -0.0000000000e+00 -4.6110209695e+02 4.6110209695e+02 0.0000000000e+00 0.0000e+00 -1.0000e+00
        6  1    1    2  501    0 -1.2628068815e+02 -1.0612062250e+02 -1.6120623452e+02 2.8831380260e+02 1.7300000000e+02 0.0000e+00 -1.0000e+00
       -6  1    1    2    0  505 +2.6771153565e+01 +1.6496200341e+02 +1.0965230640e+01 2.4078702938e+02 1.7300000000e+02 0.0000e+00 -1.0000e+00
       21  1    1    2  504  503 -2.3328746927e+01 -1.1316558327e+01 -3.7277663970e+01 4.5408359986e+01 0.0000000000e+00 0.0000e+00 -1.0000e+00
       21  1    1    2  505  502 +1.2283828152e+02 -4.7524822584e+01 -2.5935809697e+01 1.3424052440e+02 0.0000000000e+00 0.0000e+00 -1.0000e+00
<mgrwt>
<rscale>  4 0.23676847E+03</rscale>
<asrwt>0</asrwt>
<pdfrwt beam="1">  1       21 0.38099634E-01 0.23676847E+03</pdfrwt>
<pdfrwt beam="2">  1       21 0.70938784E-01 0.23676847E+03</pdfrwt>
<totfact> 0.11627096E+04</totfact>
</mgrwt>
</event>
<event>
 6      1 +2.5168323e+02 1.87955800e+02 7.54677100e-03 1.16820100e-01
       21 -1    0    0  505  502 +0.0000000000e+00 +0.0000000000e+00 +5.4589683148e+02 5.4589683148e+02 0.0000000000e+00 0.0000e+00 -1.0000e+00
       21 -1    0    0  501  503 -0.0000000000e+00 -0.0000000000e+00 -1.8571562085e+03 1.8571562085e+03 0.0000000000e+00 0.0000e+00 -1.0000e+00
        6  1    1    2  501    0 +4.7862805651e+01 +4.4214715255e+01 +7.9090649615e+01 2.0107242493e+02 1.7300000000e+02 0.0000e+00 1.0000e+00
       -6  1    1    2    0  502 +9.1763936305e+00 -1.0203434553e+02 +2.2701271528e+02 3.0324740191e+02 1.7300000000e+02 0.0000e+00 -1.0000e+00
       21  1    1    2  504  503 -5.4321077409e+01 +2.8190130763e+01 -1.7559357134e+03 1.7570019045e+03 0.0000000000e+00 0.0000e+00 -1.0000e+00
       21  1    1    2  505  504 -2.7181218728e+00 +2.9629499514e+01 +1.3857297146e+02 1.4173130864e+02 0.0000000000e+00 0.0000e+00 -1.0000e+00
<mgrwt>
<rscale>  4 0.18795581E+03</rscale>
<asrwt>0</asrwt>
<pdfrwt beam="1">  1       21 0.83984129E-01 0.18795581E+03</pdfrwt>
<pdfrwt beam="2">  1       21 0.28571634E+00 0.18795581E+03</pdfrwt>
<totfact> 0.51225291E+01</totfact>
</mgrwt>
</event>
<event>
 6      1 +2.5168323e+02 2.51989400e+02 7.54677100e-03 1.11671100e-01
       21 -1    0    0  503  502 +0.0000000000e+00 +0.0000000000e+00 +3.5061680563e+02 3.5061680563e+02 0.0000000000e+00 0.0000e+00 1.0000e+00
       21 -1    0    0  501  503 -0.0000000000e+00 -0.0000000000e+00 -3.9235672730e+02 3.9235672730e+02 0.0000000000e+00 0.0000e+00 1.0000e+00
        6  1    1    2  501    0 -1.5979283337e+02 +3.8627994644e+00 -1.2252431890e+02 2.6549930233e+02 1.7300000000e+02 0.0000e+00 1.0000e+00
       -6  1    1    2    0  504 +2.1677439472e+02 +5.7463464733e+01 -6.9543997746e+01 2.9164799949e+02 1.7300000000e+02 0.0000e+00 1.0000e+00
       21  1    1    2  504  505 -7.0228338170e+01 -3.8207243558e+01 +9.3221373260e+01 1.2280894664e+02 0.0000000000e+00 0.0000e+00 1.0000e+00
       21  1    1    2  505  502 +1.3246776820e+01 -2.3119020639e+01 +5.7107021718e+01 6.3017284462e+01 0.0000000000e+00 0.0000e+00 1.0000e+00
<mgrwt>
<rscale>  4 0.25198940E+03</rscale>
<asrwt>0</asrwt>
<pdfrwt beam="1">  1       21 0.53941047E-01 0.25198940E+03</pdfrwt>
<pdfrwt beam="2">  1       21 0.60362573E-01 0.25198940E+03</pdfrwt>
<totfact> 0.80008056E+03</totfact>
</mgrwt>
</event>
<event>
 6      1 +2.5168323e+02 2.30604800e+02 7.54677100e-03 1.15942100e-01
       21 -1    0    0  504  502 +0.0000000000e+00 +0.0000000000e+00 +8.9947214905e+02 8.9947214905e+02 0.0000000000e+00 0.0000e+00 -1.0000e+00
       21 -1    0    0  501  503 -0.0000000000e+00 -0.0000000000e+00 -1.7245867757e+02 1.7245867757e+02 0.0000000000e+00 0.0000e+00 -1.0000e+00
        6  1    1    2  501    0 -1.6796686973e+01 -1.4572800332e+02 +5.6594831136e+02 6.0970916901e+02 1.7300000000e+02 0.0000e+00 -1.0000e+00
       -6  1    1    2    0  502 -1.9890535901e+01 +1.6688309169e+02 +2.5776245334e+02 3.5301003111e+02 1.7300000000e+02 0.0000e+00 -1.0000e+00
       21  1    1    2  504  505 +1.9973724611e+01 -9.9947618454e+00 -2.0186765033e+01 3.0105654314e+01 0.0000000000e+00 0.0000e+00 -1.0000e+00
       21  1    1    2  505  503 +1.6713498263e+01 -1.1160326524e+01 -7.6510528188e+01 7.9105972189e+01 0.0000000000e+00 0.0000e+00 -1.0000e+00
<mgrwt>
<rscale>  4 0.23060479E+03</rscale>
<asrwt>0</asrwt>
<pdfrwt beam="1">  1       21 0.13838033E+00 0.23060479E+03</pdfrwt>
<pdfrwt beam="2">  1       21 0.26532105E-01 0.23060479E+03</pdfrwt>
<totfact> 0.48379396E+03</totfact>
</mgrwt>
</event>
<event>
 6      1 +2.5168323e+02 1.74951100e+02 7.54677100e-03 1.17132900e-01
       21 -1    0    0  505  502 +0.0000000000e+00 +0.0000000000e+00 +8.7505518713e+02 8.7505518713e+02 0.0000000000e+00 0.0000e+00 -1.0000e+00
       21 -1    0    0  504  503 -0.0000000000e+00 -0.0000000000e+00 -1.4618997605e+02 1.4618997605e+02 0.0000000000e+00 0.0000e+00 -1.0000e+00
        6  1    1    2  501    0 +8.8710092445e+00 +2.7809654554e+01 +6.0380770058e+02 6.2878041555e+02 1.7300000000e+02 0.0000e+00 -1.0000e+00
       -6  1    1    2    0  502 +6.5137328856e+01 -1.5460532271e+01 +1.3009259964e+02 2.2657224929e+02 1.7300000000e+02 0.0000e+00 -1.0000e+00
       21  1    1    2  504  501 -1.0083590768e+01 +3.2754906827e+01 -6.0815947828e+01 6.9807895214e+01 0.0000000000e+00 0.0000e+00 -1.0000e+00
       21  1    1    2  505  503 -6.3924747332e+01 -4.5104029110e+01 +5.5780858675e+01 9.6084603126e+01 0.0000000000e+00 0.0000e+00 -1.0000e+00
<mgrwt>
<rscale>  4 0.17495106E+03</rscale>
<asrwt>0</asrwt>
<pdfrwt beam="1">  1       21 0.13462387E+00 0.17495106E+03</pdfrwt>
<pdfrwt beam="2">  1       21 0.22490766E-01 0.17495106E+03</pdfrwt>
<totfact> 0.74294210E+03</totfact>
</mgrwt>
</event>
<event>
 6      1 +2.5168323e+02 2.03689000e+02 7.54677100e-03 1.16820100e-01
       21 -1    0    0  501  502 +0.0000000000e+00 +0.0000000000e+00 +5.0254971456e+02 5.0254971456e+02 0.0000000000e+00 0.0000e+00 1.0000e+00
       21 -1    0    0  504  503 -0.0000000000e+00 -0.0000000000e+00 -5.0578002374e+02 5.0578002374e+02 0.0000000000e+00 0.0000e+00 1.0000e+00
        6  1    1    2  501    0 -1.6482399012e+02 -6.3831938800e+01 +3.6247423722e+02 4.3881435343e+02 1.7300000000e+02 0.0000e+00 1.0000e+00
       -6  1    1    2    0  503 -1.0763762546e+01 +1.0279266200e+00 -2.6683784927e+02 3.1819546354e+02 1.7300000000e+02 0.0000e+00 1.0000e+00
       21  1    1    2  504  505 +1.2848739898e+02 +2.0551569738e+01 -1.2722364551e+02 1.8198141304e+02 0.0000000000e+00 0.0000e+00 1.0000e+00
       21  1    1    2  505  502 +4.7100353686e+01 +4.2252442441e+01 +2.8356948386e+01 6.9338508286e+01 0.0000000000e+00 0.0000e+00 1.0000e+00
<mgrwt>
<rscale>  4 0.20368904E+03</rscale>
<asrwt>0</asrwt>
<pdfrwt beam="1">  1       21 0.77315341E-01 0.20368904E+03</pdfrwt>
<pdfrwt beam="2">  1       21 0.77812311E-01 0.20368904E+03</pdfrwt>
<totfact> 0.21533323E+03</totfact>
</mgrwt>
</event>
<event>
 6      1 +2.5168323e+02 2.52573400e+02 7.54677100e-03 1.16820100e-01
       21 -1    0    0  505  502 +0.0000000000e+00 +0.0000000000e+00 +1.1335942764e+03 1.1335942764e+03 0.0000000000e+00 0.0000e+00 -1.0000e+00
       21 -1    0    0  501  503 -0.0000000000e+00 -0.0000000000e+00 -1.8569127489e+02 1.8569127489e+02 0.0000000000e+00 0.0000e+00 -1.0000e+00
        6  1    1    2  501    0 -9.0377390234e+01 -1.2463707893e+02 +2.8069057277e+02 3.6389376437e+02 1.7300000000e+02 0.0000e+00 -1.0000e+00
       -6  1    1    2    0  502 +1.8316978284e+02 +1.0254056635e+02 +6.5609467659e+02 7.1024992907e+02 1.7300000000e+02 0.0000e+00 -1.0000e+00
       21  1    1    2  504  503 +8.7639540107e+00 -2.6211627514e+01 -8.9851208744e+01 9.4005829711e+01 0.0000000000e+00 0.0000e+00 -1.0000e+00
       21  1    1    2  505  504 -1.0155634661e+02 +4.8308140089e+01 +1.0096896087e+02 1.5113602812e+02 0.0000000000e+00 0.0000e+00 -1.0000e+00
<mgrwt>
<rscale>  4 0.25257341E+03</rscale>
<asrwt>0</asrwt>
<pdfrwt beam="1">  1       21 0.17439912E+00 0.25257341E+03</pdfrwt>
<pdfrwt beam="2">  1       21 0.28567889E-01 0.25257341E+03</pdfrwt>
<totfact> 0.22115107E+03</totfact>
</mgrwt>
</event>
<event>
 6      1 +2.5168323e+02 1.96055600e+02 7.54677100e-03 1.15832300e-01
       21 -1    0    0  501  502 +0.0000000000e+00 +0.0000000000e+00 +1.1196189832e+03 1.1196189832e+03 0.0000000000e+00 0.0000e+00 -1.0000e+00
       21 -1    0    0  502  503 -0.0000000000e+00 -0.0000000000e+00 -2.2774519341e+02 2.2774519341e+02 0.0000000000e+00 0.0000e+00 -1.0000e+00
        6  1    1    2  501    0 +4.8380596701e+01 +7.1213729524e+01 +9.4772864885e+02 9.6722834391e+02 1.7300000000e+02 0.0000e+00 -1.0000e+00
       -6  1    1    2    0  504 -8.3833967913e+01 -1.4861997386e+02 -3.9239997734e+00 2.4302351446e+02 1.7300000000e+02 0.0000e+00 -1.0000e+00
       21  1    1    2  504  505 +2.9596678409e+01 +3.2448639112e+01 +2.2966726689e+01 4.9561558570e+01 0.0000000000e+00 0.0000e+00 -1.0000e+00
       21  1    1    2  505  503 +5.8566928026e+00 +4.4957605228e+01 -7.4897586021e+01 8.7550759621e+01 0.0000000000e+00 0.0000e+00 -1.0000e+00
<mgrwt>
<rscale>  4 0.19605560E+03</rscale>
<asrwt>0</asrwt>
<pdfrwt beam="1">  1       21 0.17224907E+00 0.19605560E+03</pdfrwt>
<pdfrwt beam="2">  1       21 0.35037723E-01 0.19605560E+03</pdfrwt>
<totfact> 0.16103799E+03</totfact>
</mgrwt>
</event>
<event>
 6      1 +2.5168323e+02 2.55528200e+02 7.54677100e-03 1.12068800e-01
       21 -1    0    0  504  502 +0.0000000000e+00 +0.0000000000e+00 +4.5726673593e+02 4.5726673593e+02 0.0000000000e+00 0.0000e+00 -1.0000e+00
       21 -1    0    0  502  503 -0.0000000000e+00 -0.0000000000e+00 -2.6409982857e+02 2.6409982857e+02 0.0000000000e+00 0.0000e+00 -1.0000e+00
        6  1    1    2  501    0 +1.0446678589e+02 +1.4756829063e+02 +7.9018290997e+01 2.6241684410e+02 1.7300000000e+02 0.0000e+00 -1.0000e+00
       -6  1    1    2    0  505 -1.8537764418e+02 -8.8002254521e+01 +1.6423943927e+02 3.1466309154e+02 1.7300000000e+02 0.0000e+00 -1.0000e+00
       21  1    1    2  504  501 +5.3390777702e+01 -7.9243072791e+01 -5.4767123325e+01 1.1013390725e+02 0.0000000000e+00 0.0000e+00 -1.0000e+00
       21  1    1    2  505  503 +2.7520080587e+01 +1.9677036684e+01 +4.6763004137e+00 3.4152721615e+01 0.0000000000e+00 0.0000e+00 -1.0000e+00
<mgrwt>
<rscale>  4 0.25552823E+03</rscale>
<asrwt>0</asrwt>
<pdfrwt beam="1">  1       21 0.70348729E-01 0.25552823E+03</pdfrwt>
<pdfrwt beam="2">  1       21 0.40630743E-01 0.25552823E+03</pdfrwt>
<totfact> 0.10290449E+04</totfact>
</mgrwt>
</event>
<event>
 6      1 +2.5168323e+02 3.00306000e+02 7.54677100e-03 1.17132900e-01
       21 -1    0    0  505  502 +0.0000000000e+00 +0.0000000000e+00 +1.0721520693e+03 1.0721520693e+03 0.0000000000e+00 0.0000e+00 1.0000e+00
       21 -1    0    0  504  503 -0.0000000000e+00 -0.0000000000e+00 -2.9736263213e+02 2.9736263213e+02 0.0000000000e+00 0.0000e+00 1.0000e+00
        6  1    1    2  501    0 -4.7941564559e+01 +1.9002677167e+02 +3.1515841224e+02 4.0946598438e+02 1.7300000000e+02 0.0000e+00 1.0000e+00
       -6  1    1    2    0  502 +5.3027688452e+01 +4.1728404100e+01 +3.2119071476e+02 3.7100629469e+02 1.7300000000e+02 0.0000e+00 1.0000e+00
       21  1    1    2  504  501 -4.3795682356e+01 +6.0307980330e+01 -1.5576714251e+02 1.7268038965e+02 0.0000000000e+00 0.0000e+00 1.0000e+00
       21  1    1    2  505  503 +3.8709558464e+01 -2.9206315610e+02 +2.9420745269e+02 4.1636203271e+02 0.0000000000e+00 0.0000e+00 1.0000e+00
<mgrwt>
<rscale>  4 0.26655769E+03</rscale>
<asrwt>0</asrwt>
<pdfrwt beam="1">  1       21 0.16494647E+00 0.30030599E+03</pdfrwt>
<pdfrwt beam="2">  1       21 0.45748098E-01 0.30030599E+03</pdfrwt>
<totfact> 0.96793264E+02</totfact>
</mgrwt>
</event>
<event>
 6      1 +2.5168323e+02 2.02687200e+02 7.54677100e-03 1.15942100e-01
       21 -1    0    0  504  502 +0.0000000000e+00 +0.0000000000e+00 +9.0526841831e+02 9.0526841831e+02 0.0000000000e+00 0.0000e+00 -1.0000e+00
       21 -1    0    0  501  503 -0.0000000000e+00 -0.0000000000e+00 -1.3638545136e+02 1.3638545136e+02 0.0000000000e+00 0.0000e+00 -1.0000e+00
        6  1    1    2  501    0 +1.3448573201e+02 +1.3558849536e+02 +2.3237463612e+02 3.4698360725e+02 1.7300000000e+02 0.0000e+00 -1.0000e+00
       -6  1    1    2    0  502 -8.5901535427e+01 -1.2478730057e+01 +5.1956567016e+02 5.5444772351e+02 1.7300000000e+02 0.0000e+00 -1.0000e+00
       21  1    1    2  504  505 -3.1997166891e+01 -6.4693640708e+01 -1.1640091210e+01 7.3106617761e+01 0.0000000000e+00 0.0000e+00 -1.0000e+00
       21  1    1    2  505  503 -1.6587029695e+01 -5.8416124600e+01 +2.8582751881e+01 6.7115921155e+01 0.0000000000e+00 0.0000e+00 -1.0000e+00
<mgrwt>
<rscale>  4 0.20268721E+03</rscale>
<asrwt>0</asrwt>
<pdfrwt beam="1">  1       21 0.13927206E+00 0.20268721E+03</pdfrwt>
<pdfrwt beam="2">  1       21 0.20982378E-01 0.20268721E+03</pdfrwt>
<totfact> 0.75937371E+03</totfact>
</mgrwt>
</event>
<event>
 6      1 +2.5168323e+02 1.81100700e+02 7.54677100e-03 1.06249800e-01
       21 -1    0    0  504  502 +0.0000000000e+00 +0.0000000000e+00 +3.7433409080e+02 3.7433409080e+02 0.0000000000e+00 0.0000e+00 -1.0000e+00
       21 -1    0    0  501  503 -0.0000000000e+00 -0.0000000000e+00 -2.8370623003e+03 2.8370623003e+03 0.0000000000e+00 0.0000e+00 1.0000e+00
        6  1    1    2  501    0 -1.4526701882e+02 +4.1881165212e+01 -6.1765720409e+02 6.5900376366e+02 1.7300000000e+02 0.0000e+00 -1.0000e+00
       -6  1    1    2    0  505 +2.2951677131e+01 +4.7223698236e+01 -2.1681738700e+03 2.1756984597e+03 1.7300000000e+02 0.0000e+00 1.0000e+00
       21  1    1    2  504  503 -1.9115478589e+01 -2.6762112237e+01 +1.0010515949e+02 1.0536913746e+02 0.0000000000e+00 0.0000e+00 -1.0000e+00
       21  1    1    2  505  502 +1.4143082028e+02 -6.2342751211e+01 +2.2299770510e+02 2.7132503023e+02 0.0000000000e+00 0.0000e+00 -1.0000e+00
<mgrwt>
<rscale>  4 0.18110073E+03</rscale>
<asrwt>0</asrwt>
<pdfrwt beam="1">  1       21 0.57589857E-01 0.18110073E+03</pdfrwt>
<pdfrwt beam="2">  1       21 0.43647115E+00 0.18110073E+03</pdfrwt>
<totfact> 0.14817786E+01</totfact>
</mgrwt>
</event>
<event>
 6      1 +2.5168323e+02 2.28344900e+02 7.54677100e-03 1.06249800e-01
       21 -1    0    0  504  502 +0.0000000000e+00 +0.0000000000e+00 +6.0855067481e+02 6.0855067481e+02 0.0000000000e+00 0.0000e+00 -1.0000e+00
       21 -1    0    0  501  503 -0.0000000000e+00 -0.0000000000e+00 -1.9482433109e+02 1.9482433109e+02 0.0000000000e+00 0.0000e+00 1.0000e+00
        6  1    1    2  501    0 -1.6325512628e+02 -8.6861104790e+00 +1.2694071937e+02 2.6976032141e+02 1.7300000000e+02 0.0000e+00 1.0000e+00
       -6  1    1    2    0  505 +1.4043721119e+02 -2.6021098931e+01 -1.2640505434e+01 2.2469644023e+02 1.7300000000e+02 0.0000e+00 1.0000e+00
       21  1    1    2  504  503 +3.1794334630e+01 -4.8103398266e+00 +8.9131403308e+01 9.4754557355e+01 0.0000000000e+00 0.0000e+00 -1.0000e+00
       21  1    1    2  505  502 -8.9764195335e+00 +3.9517549237e+01 +2.1029472647e+02 2.1416368690e+02 0.0000000000e+00 0.0000e+00 1.0000e+00
<mgrwt>
<rscale>  4 0.22834487E+03</rscale>
<asrwt>0</asrwt>
<pdfrwt beam="1">  1       21 0.93623180E-01 0.22834487E+03</pdfrwt>
<pdfrwt beam="2">  1       21 0.29972974E-01 0.22834487E+03</pdfrwt>
<totfact> 0.99913289E+03</totfact>
</mgrwt>
</event>
<event>
 6      1 +2.5168323e+02 2.76138200e+02 7.54677100e-03 1.12989000e-01
       21 -1    0    0  501  502 +0.0000000000e+00 +0.0000000000e+00 +1.5445883400e+02 1.5445883400e+02 0.0000000000e+00 0.0000e+00 1.0000e+00
       21 -1    0    0  502  503 -0.0000000000e+00 -0.0000000000e+00 -1.2183341231e+03 1.2183341231e+03 0.0000000000e+00 0.0000e+00 1.0000e+00
        6  1    1    2  501    0 -1.0009168889e+02 -1.8285067631e+02 -7.0864152437e+01 2.8000615013e+02 1.7300000000e+02 0.0000e+00 1.0000e+00
       -6  1    1    2    0  505 -3.4323854066e+01 -2.3076285148e+01 -2.3343525934e+02 2.9348196231e+02 1.7300000000e+02 0.0000e+00 -1.0000e+00
       21  1    1    2  504  503 +2.0621315501e+01 +3.3690626796e+01 -8.2687072628e+01 9.1637595815e+01 0.0000000000e+00 0.0000e+00 1.0000e+00
       21  1    1    2  505  504 +1.1379422745e+02 +1.7223633466e+02 -6.7688880474e+02 7.0766724890e+02 0.0000000000e+00 0.0000e+00 1.0000e+00
<mgrwt>
<rscale>  4 0.24738527E+03</rscale>
<asrwt>0</asrwt>
<pdfrwt beam="1">  1       21 0.23762898E-01 0.27613822E+03</pdfrwt>
<pdfrwt beam="2">  1       21 0.18743602E+00 0.27613822E+03</pdfrwt>
<totfact> 0.25237981E+03</totfact>
</mgrwt>
</event>
<event>
 6      1 +2.5168323e+02 1.93801300e+02 7.54677100e-03 1.17132900e-01
       21 -1    0    0  505  502 +0.0000000000e+00 +0.0000000000e+00 +7.4271830638e+01 7.4271830638e+01 0.0000000000e+00 0.0000e+00 1.0000e+00
       21 -1    0    0  504  503 -0.0000000000e+00 -0.0000000000e+00 -1.7044431458e+03 1.7044431458e+03 0.0000000000e+00 0.0000e+00 -1.0000e+00
        6  1    1    2  501    0 -2.9050960381e+01 -8.5451442979e+01 -1.8807280092e+02 2.7100975232e+02 1.7300000000e+02 0.0000e+00 1.0000e+00
       -6  1    1    2    0  502 +1.8015889815e+01 +7.8279713435e+01 -5.6338423817e+02 5.9479667588e+02 1.7300000000e+02 0.0000e+00 -1.0000e+00
       21  1    1    2  504  501 +1.2362790622e+02 +2.2132146371e+01 -5.7730088290e+02 5.9080453662e+02 0.0000000000e+00 0.0000e+00 -1.0000e+00
       21  1    1    2  505  503 -1.1259283565e+02 -1.4960416826e+01 -3.0141339312e+02 3.2210401156e+02 0.0000000000e+00 0.0000e+00 1.0000e+00
<mgrwt>
<rscale>  4 0.19380129E+03</rscale>
<asrwt>0</asrwt>
<pdfrwt beam="1">  1       21 0.11426435E-01 0.19380129E+03</pdfrwt>
<pdfrwt beam="2">  1       21 0.26222202E+00 0.19380129E+03</pdfrwt>
<totfact> 0.36078220E+03</totfact>
</mgrwt>
</event>
<event>
 6      1 +2.5168323e+02 2.34762000e+02 7.54677100e-03 1.16519500e-01
       21 -1    0    0  505  502 +0.0000000000e+00 +0.0000000000e+00 +6.6555013241e+02 6.6555013241e+02 0.0000000000e+00 0.0000e+00 1.0000e+00
       21 -1    0    0  504  503 -0.0000000000e+00 -0.0000000000e+00 -1.8198424645e+02 1.8198424645e+02 0.0000000000e+00 0.0000e+00 -1.0000e+00
        6  1    1    2  501    0 -1.0730019897e+01 -6.2897742328e+01 +4.2790135378e+01 1.8929145518e+02 1.7300000000e+02 0.0000e+00 -1.0000e+00
       -6  1    1    2    0  503 +3.1399600111e+01 +2.0731196774e+02 +4.3009176843e+02 5.0879476818e+02 1.7300000000e+02 0.0000e+00 -1.0000e+00
       21  1    1    2  504  502 -2.2531447790e+00 -5.0056577189e+01 -1.0036401927e+01 5.1102514076e+01 0.0000000000e+00 0.0000e+00 -1.0000e+00
       21  1    1    2  505  501 -1.8416435435e+01 -9.4357648222e+01 +2.0720384075e+01 9.8345641430e+01 0.0000000000e+00 0.0000e+00 -1.0000e+00
<mgrwt>
<rscale>  4 0.23476202E+03</rscale>
<asrwt>0</asrwt>
<pdfrwt beam="1">  1       21 0.10239233E+00 0.23476202E+03</pdfrwt>
<pdfrwt beam="2">  1       21 0.27997577E-01 0.23476202E+03</pdfrwt>
<totfact> 0.91917742E+03</totfact>
</mgrwt>
</event>
<event>
 6      1 +2.5168323e+02 2.13758300e+02 7.54677100e-03 1.16820100e-01
       21 -1    0    0  505  502 +0.0000000000e+00 +0.0000000000e+00 +1.9958650910e+02 1.9958650910e+02 0.0000000000e+00 0.0000e+00 -1.0000e+00
       21 -1    0    0  504  503 -0.0000000000e+00 -0.0000000000e+00 -1.1982780749e+03 1.1982780749e+03 0.0000000000e+00 0.0000e+00 1.0000e+00
        6  1    1    2  501    0 -5.3111726994e+01 -1.0673697299e+02 +2.1067795425e+01 2.1115513006e+02 1.7300000000e+02 0.0000e+00 -1.0000e+00
       -6  1    1    2    0  503 +3.4216476464e+01 +4.1977466531e+01 -7.1532467682e+02 7.3793717092e+02 1.7300000000e+02 0.0000e+00 1.0000e+00
       21  1    1    2  504  502 +1.0225919831e+02 +1.9093322655e+01 -3.3352228586e+02 3.4936887922e+02 0.0000000000e+00 0.0000e+00 1.0000e+00
       21  1    1    2  505  501 -8.3363947775e+01 +4.5666183800e+01 +2.9087601439e+01 9.9403403810e+01 0.0000000000e+00 0.0000e+00 -1.0000e+00
<mgrwt>
<rscale>  4 0.21375827E+03</rscale>
<asrwt>0</asrwt>
<pdfrwt beam="1">  1       21 0.30705617E-01 0.21375827E+03</pdfrwt>
<pdfrwt beam="2">  1       21 0.18435047E+00 0.21375827E+03</pdfrwt>
<totfact> 0.16956480E+03</totfact>
</mgrwt>
</event>
<event>
 6      1 +2.5168323e+02 2.38343700e+02 7.54677100e-03 1.09842800e-01
       21 -1    0    0  504  502 +0.0000000000e+00 +0.0000000000e+00 +8.0707494601e+02 8.0707494601e+02 0.0000000000e+00 0.0000e+00 1.0000e+00
       21 -1    0    0  505  503 -0.0000000000e+00 -0.0000000000e+00 -1.9771928895e+02 1.9771928895e+02 0.0000000000e+00 0.0000e+00 1.0000e+00
        6  1    1    2  501    0 +5.7990782321e+01 +1.0914492082e+02 +3.7623956257e+02 4.3215824997e+02 1.7300000000e+02 0.0000e+00 -1.0000e+00
       -6  1    1    2    0  503 -1.3082189474e+02 -1.1602269888e+02 -6.7735060008e+01 2.5513265795e+02 1.7300000000e+02 0.0000e+00 1.0000e+00
       21  1    1    2  504  501 +7.8068060443e+01 -1.3007846923e+01 +2.5983235963e+02 2.7161863201e+02 0.0000000000e+00 0.0000e+00 1.0000e+00
       21  1    1    2  505  502 -5.2369480242e+00 +1.9885624981e+01 +4.1018794868e+01 4.5884695029e+01 0.0000000000e+00 0.0000e+00 -1.0000e+00
<mgrwt>
<rscale>  4 0.23834373E+03</rscale>
<asrwt>0</asrwt>
<pdfrwt beam="1">  1       21 0.12416537E+00 0.23834373E+03</pdfrwt>
<pdfrwt beam="2">  1       21 0.30418353E-01 0.23834373E+03</pdfrwt>
<totfact> 0.48609651E+03</totfact>
</mgrwt>
</event>
<event>
 6      1 +2.5168323e+02 1.90680700e+02 7.54677100e-03 1.11910500e-01
       21 -1    0    0  501  502 +0.0000000000e+00 +0.0000000000e+00 +1.6849191049e+02 1.6849191049e+02 0.0000000000e+00 0.0000e+00 -1.0000e+00
       21 -1    0    0  505  503 -0.0000000000e+00 -0.0000000000e+00 -9.0752043986e+02 9.0752043986e+02 0.0000000000e+00 0.0000e+00 -1.0000e+00
        6  1    1    2  501    0 +4.8056566704e+01 +6.3235696872e+01 -9.4076628215e+01 2.1233840665e+02 1.7300000000e+02 0.0000e+00 1.0000e+00
       -6  1    1    2    0  504 +2.9944733063e+01 -9.0660053747e+01 +8.4969859044e+00 1.9778051257e+02 1.7300000000e+02 0.0000e+00 -1.0000e+00
       21  1    1    2  504  503 +2.1423592825e+00 +2.0855099701e+01 -3.8718236977e+02 3.8774954848e+02 0.0000000000e+00 0.0000e+00 -1.0000e+00
       21  1    1    2  505  502 -8.0143659050e+01 +6.5692571741e+00 -2.6626651728e+02 2.7814388264e+02 0.0000000000e+00 0.0000e+00 -1.0000e+00
<mgrwt>
<rscale>  4 0.19068073E+03</rscale>
<asrwt>0</asrwt>
<pdfrwt beam="1">  1       21 0.25921832E-01 0.19068073E+03</pdfrwt>
<pdfrwt beam="2">  1       21 0.13961853E+00 0.19068073E+03</pdfrwt>
<totfact> 0.51015352E+03</totfact>
</mgrwt>
</event>
<event>
 6      1 +2.5168323e+02 2.07196200e+02 7.54677100e-03 1.04003000e-01
       21 -1    0    0  504  502 +0.0000000000e+00 +0.0000000000e+00 +9.9754068943e+02 9.9754068943e+02 0.0000000000e+00 0.0000e+00 -1.0000e+00
       21 -1    0    0  505  503 -0.0000000000e+00 -0.0000000000e+00 -1.6763779514e+02 1.6763779514e+02 0.0000000000e+00 0.0000e+00 -1.0000e+00
        6  1    1    2  501    0 +1.2938438554e+02 -1.8541488603e+01 +6.4821703432e+01 2.2630722317e+02 1.7300000000e+02 0.0000e+00 -1.0000e+00
       -6  1    1    2    0  503 -9.7314286637e+01 -6.2844791489e+01 +7.7419900944e+02 8.0170608356e+02 1.7300000000e+02 0.0000e+00 -1.0000e+00
       21  1    1    2  504  501 +1.4558593264e+01 +1.5785066047e+01 -4.4374447093e+01 4.9297185545e+01 0.0000000000e+00 0.0000e+00 -1.0000e+00
       21  1    1    2  505  502 -4.6628692169e+01 +6.5601214045e+01 +3.5256628514e+01 8.7867992305e+01 0.0000000000e+00 0.0000e+00 -1.0000e+00
<mgrwt>
<rscale>  4 0.20719617E+03</rscale>
<asrwt>0</asrwt>
<pdfrwt beam="1">  1       21 0.15346780E+00 0.20719617E+03</pdfrwt>
<pdfrwt beam="2">  1       21 0.25790431E-01 0.20719617E+03</pdfrwt>
<totfact> 0.39658022E+03</totfact>
</mgrwt>
</event>
<event>
 6      1 +2.5168323e+02 4.93321300e+02 7.54677100e-03 1.17132900e-01
       21 -1    0    0  503  502 +0.0000000000e+00 +0.0000000000e+00 +5.9334144784e+02 5.9334144784e+02 0.0000000000e+00 0.0000e+00 1.0000e+00
       21 -1    0    0  504  503 -0.0000000000e+00 -0.0000000000e+00 -9.5319194690e+02 9.5319194690e+02 0.0000000000e+00 0.0000e+00 1.0000e+00
        6  1    1    2  501    0 +9.2349337164e+01 +1.4959635225e+02 -2.4498845278e+02 3.4764322326e+02 1.7300000000e+02 0.0000e+00 -1.0000e+00
       -6  1    1    2    0  505 +1.2041976513e+02 +1.0047964040e+02 -5.1190333892e+02 5.6264651991e+02 1.7300000000e+02 0.0000e+00 1.0000e+00
       21  1    1    2  504  501 -1.0689806656e+00 -2.6540274459e+01 -7.1122206120e+01 7.5920333847e+01 0.0000000000e+00 0.0000e+00 -1.0000e+00
       21  1    1    2  505  502 -2.1170012163e+02 -2.2353571819e+02 +4.6816349876e+02 5.6032331772e+02 0.0000000000e+00 0.0000e+00 1.0000e+00
<mgrwt>
<rscale>  4 0.49332128E+03</rscale>
<asrwt>0</asrwt>
<pdfrwt beam="1">  1       21 0.91283299E-01 0.49332128E+03</pdfrwt>
<pdfrwt beam="2">  1       21 0.14664492E+00 0.49332128E+03</pdfrwt>
<totfact> 0.25963922E+02</totfact>
</mgrwt>
</event>
<event>
 6      1 +2.5168323e+02 2.40540800e+02 7.54677100e-03 1.16820100e-01
       21 -1    0    0  504  502 +0.0000000000e+00 +0.0000000000e+00 +3.4965495661e+02 3.4965495661e+02 0.0000000000e+00 0.0000e+00 -1.0000e+00
       21 -1    0    0  501  503 -0.0000000000e+00 -0.0000000000e+00 -2.5883635656e+02 2.5883635656e+02 0.0000000000e+00 0.0000e+00 -1.0000e+00
        6  1    1    2  501    0 +1.4974972825e+02 -7.4214298830e+01 +4.0503810546e+01 2.4393093681e+02 1.7300000000e+02 0.0000e+00 -1.0000e+00
       -6  1    1    2    0  505 -1.6582085494e+02 +5.4389026215e+01 -1.6178312753e+00 2.4573632105e+02 1.7300000000e+02 0.0000e+00 -1.0000e+00
       21  1    1    2  504  503 +2.8951427680e+01 -1.1567976394e+01 -2.1539864982e+01 3.7894181954e+01 0.0000000000e+00 0.0000e+00 -1.0000e+00
       21  1    1    2  505  502 -1.2880300993e+01 +3.1393249009e+01 +7.3472485760e+01 8.0929873352e+01 0.0000000000e+00 0.0000e+00 1.0000e+00
<mgrwt>
<rscale>  4 0.24054079E+03</rscale>
<asrwt>0</asrwt>
<pdfrwt beam="1">  1       21 0.53793070E-01 0.24054079E+03</pdfrwt>
<pdfrwt beam="2">  1       21 0.39820978E-01 0.24054079E+03</pdfrwt>
<totfact> 0.19342780E+04</totfact>
</mgrwt>
</event>
<event>
 6      1 +2.5168323e+02 2.39787200e+02 7.54677100e-03 1.16820100e-01
       21 -1    0    0  505  502 +0.0000000000e+00 +0.0000000000e+00 +3.8489845281e+02 3.8489845281e+02 0.0000000000e+00 0.0000e+00 1.0000e+00
       21 -1    0    0  501  503 -0.0000000000e+00 -0.0000000000e+00 -3.1369601938e+02 3.1369601938e+02 0.0000000000e+00 0.0000e+00 1.0000e+00
        6  1    1    2  501    0 +1.6868810134e+01 +1.4879637730e+02 +4.2229380262e+01 2.3267410516e+02 1.7300000000e+02 0.0000e+00 1.0000e+00
       -6  1    1    2    0  502 -8.6793548693e+00 -1.8075141376e+02 +9.2976074707e+01 2.6705796233e+02 1.7300000000e+02 0.0000e+00 1.0000e+00
       21  1    1    2  504  503 -2.8485200646e+01 +6.7178306345e+01 -1.1342533038e+02 1.3486896259e+02 0.0000000000e+00 0.0000e+00 1.0000e+00
       21  1    1    2  505  504 +2.0295745382e+01 -3.5223269889e+01 +4.9422308839e+01 6.3993442112e+01 0.0000000000e+00 0.0000e+00 1.0000e+00
<mgrwt>
<rscale>  4 0.23978723E+03</rscale>
<asrwt>0</asrwt>
<pdfrwt beam="1">  1       21 0.59215147E-01 0.23978723E+03</pdfrwt>
<pdfrwt beam="2">  1       21 0.48260926E-01 0.23978723E+03</pdfrwt>
<totfact> 0.10612139E+04</totfact>
</mgrwt>
</event>
<event>
 6      1 +2.5168323e+02 2.55056800e+02 7.54677100e-03 1.17132900e-01
       21 -1    0    0  505  502 +0.0000000000e+00 +0.0000000000e+00 +4.3767207342e+02 4.3767207342e+02 0.0000000000e+00 0.0000e+00 -1.0000e+00
       21 -1    0    0  504  503 -0.0000000000e+00 -0.0000000000e+00 -5.6504672144e+02 5.6504672144e+02 0.0000000000e+00 0.0000e+00 1.0000e+00
        6  1    1    2  501    0 -8.7392625382e+01 +1.4795464885e+02 +2.3737411928e+02 3.4029916484e+02 1.7300000000e+02 0.0000e+00 -1.0000e+00
       -6  1    1    2    0  502 -1.3110050009e+01 -1.2516038923e+01 +2.3202609716e+01 1.7548756577e+02 1.7300000000e+02 0.0000e+00 -1.0000e+00
       21  1    1    2  504  501 +1.0536299706e+02 -1.5635523123e+02 -4.1296239992e+02 4.5396724907e+02 0.0000000000e+00 0.0000e+00 1.0000e+00
       21  1    1    2  505  503 -4.8603216731e+00 +2.0916621309e+01 +2.5011022897e+01 3.2964815184e+01 0.0000000000e+00 0.0000e+00 1.0000e+00
<mgrwt>
<rscale>  4 0.23171694E+03</rscale>
<asrwt>0</asrwt>
<pdfrwt beam="1">  1       21 0.67334165E-01 0.25505677E+03</pdfrwt>
<pdfrwt beam="2">  1       21 0.86930265E-01 0.25505677E+03</pdfrwt>
<totfact> 0.21859094E+03</totfact>
</mgrwt>
</event>
<event>
 6      1 +2.5168323e+02 2.31252900e+02 7.54677100e-03 1.11910500e-01
       21 -1    0    0  501  502 +0.0000000000e+00 +0.0000000000e+00 +1.8283673331e+02 1.8283673331e+02 0.0000000000e+00 0.0000e+00 1.0000e+00
       21 -1    0    0  505  503 -0.0000000000e+00 -0.0000000000e+00 -4.7753043285e+02 4.7753043285e+02 0.0000000000e+00 0.0000e+00 -1.0000e+00
        6  1    1    2  501    0 +9.6949535410e+01 -1.1530063315e+02 -2.6566151195e+01 2.3092901249e+02 1.7300000000e+02 0.0000e+00 -1.0000e+00
       -6  1    1    2    0  504 -8.9500363701e+01 +1.2985618481e+02 -9.8211266815e+01 2.5386491834e+02 1.7300000000e+02 0.0000e+00 1.0000e+00
       21  1    1    2  504  503 -2.3598990986e+01 -1.8816534054e+00 -9.2419684798e+01 9.5403622223e+01 0.0000000000e+00 0.0000e+00 -1.0000e+00
       21  1    1    2  505  502 +1.6149819277e+01 -1.2673898252e+01 -7.7496596735e+01 8.0169613103e+01 0.0000000000e+00 0.0000e+00 -1.0000e+00
<mgrwt>
<rscale>  4 0.23125285E+03</rscale>
<asrwt>0</asrwt>
<pdfrwt beam="1">  1       21 0.28128728E-01 0.23125285E+03</pdfrwt>
<pdfrwt beam="2">  1       21 0.73466220E-01 0.23125285E+03</pdfrwt>
<totfact> 0.19662419E+04</totfact>
</mgrwt>
</event>
<event>
 6      1 +2.5168323e+02 2.17395300e+02 7.54677100e-03 1.16820100e-01
       21 -1    0    0  505  502 +0.0000000000e+00 +0.0000000000e+00 +3.5069670330e+02 3.5069670330e+02 0.0000000000e+00 0.0000e+00 1.0000e+00
       21 -1    0    0  501  503 -0.0000000000e+00 -0.0000000000e+00 -3.3510874087e+03 3.3510874087e+03 0.0000000000e+00 0.0000e+00 -1.0000e+00
        6  1    1    2  501    0 +7.6165080433e+00 -1.2566807437e+02 -2.0452407181e+03 2.0564019722e+03 1.7300000000e+02 0.0000e+00 -1.0000e+00
       -6  1    1    2    0  502 +1.1476596296e+02 +5.5305371220e+01 -4.4580201724e+01 2.1942266229e+02 1.7300000000e+02 0.0000e+00 1.0000e+00
       21  1    1    2  504  503 -6.7595598399e+01 +3.4789129973e+00 -1.1599984231e+03 1.1619714323e+03 0.0000000000e+00 0.0000e+00 1.0000e+00
       21  1    1    2  505  504 -5.4786872606e+01 +6.6883790155e+01 +2.4942863758e+02 2.6398804526e+02 0.0000000000e+00 0.0000e+00 1.0000e+00
<mgrwt>
<rscale>  4 0.21739527E+03</rscale>
<asrwt>0</asrwt>
<pdfrwt beam="1">  1       21 0.53953341E-01 0.21739527E+03</pdfrwt>
<pdfrwt beam="2">  1       21 0.51555189E+00 0.21739527E+03</pdfrwt>
<totfact> 0.45250163E+00</totfact>
</mgrwt>
</event>
<event>
 6      1 +2.5168323e+02 3.65336200e+02 7.54677100e-03 1.12989000e-01
       21 -1    0    0  501  502 +0.0000000000e+00 +0.0000000000e+00 +8.1623914561e+02 8.1623914561e+02 0.0000000000e+00 0.0000e+00 -1.0000e+00
       21 -1    0    0  502  503 -0.0000000000e+00 -0.0000000000e+00 -6.1320421160e+02 6.1320421160e+02 0.0000000000e+00 0.0000e+00 1.0000e+00
        6  1    1    2  501    0 -5.3542043086e+01 +2.2641006761e+01 +2.1942627516e+02 2.8540542355e+02 1.7300000000e+02 0.0000e+00 1.0000e+00
       -6  1    1    2    0  505 -2.4112021729e+02 +1.9180323881e+02 +3.0562937826e+02 4.6718921055e+02 1.7300000000e+02 0.0000e+00 -1.0000e+00
       21  1    1    2  504  503 +6.1858918896e+01 -3.1915145216e+02 -2.5433882010e+02 4.1276192977e+02 0.0000000000e+00 0.0000e+00 1.0000e+00
       21  1    1    2  505  504 +2.3280334148e+02 +1.0470720659e+02 -6.7681899304e+01 2.6408679332e+02 0.0000000000e+00 0.0000e+00 -1.0000e+00
<mgrwt>
<rscale>  4 0.30714167E+03</rscale>
<asrwt>0</asrwt>
<pdfrwt beam="1">  1       21 0.12557525E+00 0.36533624E+03</pdfrwt>
<pdfrwt beam="2">  1       21 0.94339109E-01 0.36533624E+03</pdfrwt>
<totfact> 0.38541663E+02</totfact>
</mgrwt>
</event>
<event>
 6      1 +2.5168323e+02 2.36867600e+02 7.54677100e-03 1.11910500e-01
       21 -1    0    0  501  502 +0.0000000000e+00 +0.0000000000e+00 +3.3288307077e+02 3.3288307077e+02 0.0000000000e+00 0.0000e+00 -1.0000e+00
       21 -1    0    0  505  503 -0.0000000000e+00 -0.0000000000e+00 -2.6212338459e+03 2.6212338459e+03 0.0000000000e+00 0.0000e+00 1.0000e+00
        6  1    1    2  501    0 -1.5923979447e+02 -1.6153085601e+01 +1.8911819897e+02 3.0218028973e+02 1.7300000000e+02 0.0000e+00 -1.0000e+00
       -6  1    1    2    0  504 +1.5134067173e+02 +1.0844711421e+02 -1.0465282056e+02 2.7485630492e+02 1.7300000000e+02 0.0000e+00 1.0000e+00
       21  1    1    2  504  503 +1.1086557577e+01 -2.1901383501e+01 -1.7684241288e+03 1.7685944933e+03 0.0000000000e+00 0.0000e+00 1.0000e+00
       21  1    1    2  505  502 -3.1874348344e+00 -7.0392645111e+01 -6.0439202472e+02 6.0848582874e+02 0.0000000000e+00 0.0000e+00 1.0000e+00
<mgrwt>
<rscale>  4 0.23686761E+03</rscale>
<asrwt>0</asrwt>
<pdfrwt beam="1">  1       21 0.51212783E-01 0.23686761E+03</pdfrwt>
<pdfrwt beam="2">  1       21 0.40326672E+00 0.23686761E+03</pdfrwt>
<totfact> 0.27825406E+01</totfact>
</mgrwt>
</event>
<event>
 6      1 +2.5168323e+02 2.31510200e+02 7.54677100e-03 1.16820100e-01
       21 -1    0    0  505  502 +0.0000000000e+00 +0.0000000000e+00 +1.0076884448e+03 1.0076884448e+03 0.0000000000e+00 0.0000e+00 -1.0000e+00
       21 -1    0    0  504  503 -0.0000000000e+00 -0.0000000000e+00 -3.8485079582e+02 3.8485079582e+02 0.0000000000e+00 0.0000e+00 1.0000e+00
        6  1    1    2  501    0 +1.7444548262e+02 -7.2960203235e+01 +1.9741560844e+02 3.2350632161e+02 1.7300000000e+02 0.0000e+00 -1.0000e+00
       -6  1    1    2    0  503 -1.3787358900e+02 +5.2820983627e+01 -2.3584854169e+02 3.2764724548e+02 1.7300000000e+02 0.0000e+00 1.0000e+00
       21  1    1    2  504  502 -5.7097331991e+01 +5.6989713282e+01 +1.9275774541e+00 8.0694784809e+01 0.0000000000e+00 0.0000e+00 1.0000e+00
       21  1    1    2  505  501 +2.0525438369e+01 -3.6850493674e+01 +6.5934300481e+02 6.6069088877e+02 0.0000000000e+00 0.0000e+00 -1.0000e+00
<mgrwt>
<rscale>  4 0.23151015E+03</rscale>
<asrwt>0</asrwt>
<pdfrwt beam="1">  1       21 0.15502899E+00 0.23151015E+03</pdfrwt>
<pdfrwt beam="2">  1       21 0.59207815E-01 0.23151015E+03</pdfrwt>
<totfact> 0.70183692E+02</totfact>
</mgrwt>
</event>
<event>
 6      1 +2.5168323e+02 2.42714100e+02 7.54677100e-03 1.09842800e-01
       21 -1    0    0  504  502 +0.0000000000e+00 +0.0000000000e+00 +2.1126477985e+02 2.1126477985e+02 0.0000000000e+00 0.0000e+00 1.0000e+00
       21 -1    0    0  505  503 -0.0000000000e+00 -0.0000000000e+00 -1.1207941668e+03 1.1207941668e+03 0.0000000000e+00 0.0000e+00 -1.0000e+00
        6  1    1    2  501    0 +1.9282586047e+02 +1.6708605161e+02 -1.0380948140e+02 3.2527675837e+02 1.7300000000e+02 0.0000e+00 -1.0000e+00
       -6  1    1    2    0  503 -1.1724195133e+02 -1.0479109678e+02 -7.8933468024e+02 8.2322845344e+02 1.7300000000e+02 0.0000e+00 -1.0000e+00
       21  1    1    2  504  501 -1.5471630772e+01 +4.8671595752e+01 -2.5381881859e+01 5.7031004888e+01 0.0000000000e+00 0.0000e+00 1.0000e+00
       21  1    1    2  505  502 -6.0112278366e+01 -1.1096655058e+02 +8.9966565752e+00 1.2652272993e+02 0.0000000000e+00 0.0000e+00 1.0000e+00
<mgrwt>
<rscale>  4 0.24271410E+03</rscale>
<asrwt>0</asrwt>
<pdfrwt beam="1">  1       21 0.32502274E-01 0.24271410E+03</pdfrwt>
<pdfrwt beam="2">  1       21 0.17242987E+00 0.24271410E+03</pdfrwt>
<totfact> 0.17856382E+03</totfact>
</mgrwt>
</event>
<event>
 6      1 +2.5168323e+02 3.07769100e+02 7.54677100e-03 1.17132900e-01
       21 -1    0    0  505  502 +0.0000000000e+00 +0.0000000000e+00 +7.2127484118e+02 7.2127484118e+02 0.0000000000e+00 0.0000e+00 -1.0000e+00
       21 -1    0    0  504  503 -0.0000000000e+00 -0.0000000000e+00 -9.4459792523e+02 9.4459792523e+02 0.0000000000e+00 0.0000e+00 -1.0000e+00
        6  1    1    2  501    0 -5.4939067979e+01 -1.2741487531e+02 +3.1166225899e+02 3.8251171919e+02 1.7300000000e+02 0.0000e+00 1.0000e+00
       -6  1    1    2    0  502 +1.6953168082e+02 -1.2156020107e+02 -6.7027313969e+01 2.7917652857e+02 1.7300000000e+02 0.0000e+00 1.0000e+00
       21  1    1    2  504  501 +1.7720138327e+01 -5.2998394799e+01 -6.3302148264e+02 6.3548330476e+02 0.0000000000e+00 0.0000e+00 -1.0000e+00
       21  1    1    2  505  503 -1.3231275117e+02 +3.0197347118e+02 +1.6506345357e+02 3.6870121388e+02 0.0000000000e+00 0.0000e+00 -1.0000e+00
<mgrwt>
<rscale>  4 0.28452811E+03</rscale>
<asrwt>0</asrwt>
<pdfrwt beam="1">  1       21 0.11096536E+00 0.30776908E+03</pdfrwt>
<pdfrwt beam="2">  1       21 0.14532276E+00 0.30776908E+03</pdfrwt>
<totfact> 0.18496552E+02</totfact>
</mgrwt>
</event>
<event>
 6      1 +2.5168323e+02 3.69410100e+02 7.54677100e-03 1.11910500e-01
       21 -1    0    0  501  502 +0.0000000000e+00 +0.0000000000e+00 +2.4641250411e+02 2.4641250411e+02 0.0000000000e+00 0.0000e+00 1.0000e+00
       21 -1    0    0  504  503 -0.0000000000e+00 -0.0000000000e+00 -2.6854378004e+03 2.6854378004e+03 0.0000000000e+00 0.0000e+00 1.0000e+00
        6  1    1    2  501    0 -6.5845303123e+01 -4.1302363750e+01 -4.7089921860e+02 5.0765791954e+02 1.7300000000e+02 0.0000e+00 -1.0000e+00
       -6  1    1    2    0  503 -1.9738154844e+01 +3.4037991136e+02 +3.1627385263e+01 3.8363702938e+02 1.7300000000e+02 0.0000e+00 1.0000e+00
       21  1    1    2  504  505 -7.4760442180e+01 -7.6087732132e+01 -9.3036585329e+02 9.3646093761e+02 0.0000000000e+00 0.0000e+00 1.0000e+00
       21  1    1    2  505  502 +1.6034390015e+02 -2.2298981547e+02 -1.0693876096e+03 1.1040944180e+03 0.0000000000e+00 0.0000e+00 1.0000e+00
<mgrwt>
<rscale>  4 0.31820538E+03</rscale>
<asrwt>0</asrwt>
<pdfrwt beam="1">  1       21 0.37909616E-01 0.36941014E+03</pdfrwt>
<pdfrwt beam="2">  1       21 0.41314427E+00 0.36941014E+03</pdfrwt>
<totfact> 0.38151224E+01</totfact>
</mgrwt>
</event>
<event>
 6      1 +2.5168323e+02 1.76167100e+02 7.54677100e-03 1.16820100e-01
       21 -1    0    0  501  502 +0.0000000000e+00 +0.0000000000e+00 +2.6069468389e+03 2.6069468389e+03 0.0000000000e+00 0.0000e+00 -1.0000e+00
       21 -1    0    0  504  503 -0.0000000000e+00 -0.0000000000e+00 -3.3631761573e+01 3.3631761573e+01 0.0000000000e+00 0.0000e+00 -1.0000e+00
        6  1    1    2  501    0 +8.7730527149e-01 +3.5182357723e+01 +1.4840689645e+03 1.4945327897e+03 1.7300000000e+02 0.0000e+00 -1.0000e+00
       -6  1    1    2    0  503 -1.8367924806e+01 +1.9746128503e-02 +4.9203679943e+02 5.2188752912e+02 1.7300000000e+02 0.0000e+00 -1.0000e+00
       21  1    1    2  504  505 -2.1530734589e+01 -3.1298645963e+01 +1.5340759909e+01 4.0969704485e+01 0.0000000000e+00 0.0000e+00 -1.0000e+00
       21  1    1    2  505  502 +3.9021354124e+01 -3.9034578883e+00 +5.8186855352e+02 5.8318857726e+02 0.0000000000e+00 0.0000e+00 -1.0000e+00
<mgrwt>
<rscale>  4 0.17616709E+03</rscale>
<asrwt>0</asrwt>
<pdfrwt beam="1">  1       21 0.40106859E+00 0.17616709E+03</pdfrwt>
<pdfrwt beam="2">  1       21 0.51741192E-02 0.17616709E+03</pdfrwt>
<totfact> 0.22334638E+03</totfact>
</mgrwt>
</event>
<event>
 6      1 +2.5168323e+02 2.37833200e+02 7.54677100e-03 1.11910500e-01
       21 -1    0    0  501  502 +0.0000000000e+00 +0.0000000000e+00 +4.9347883697e+02 4.9347883697e+02 0.0000000000e+00 0.0000e+00 1.0000e+00
       21 -1    0    0  504  503 -0.0000000000e+00 -0.0000000000e+00 -2.4520969278e+03 2.4520969278e+03 0.0000000000e+00 0.0000e+00 1.0000e+00
        6  1    1    2  501    0 -8.9398536845e+01 +8.4075795536e+01 +1.6804719024e+02 2.7060985927e+02 1.7300000000e+02 0.0000e+00 1.0000e+00
       -6  1    1    2    0  503 +1.4444082868e+02 -1.6676286763e+02 +2.0048784064e+02 3.4466995989e+02 1.7300000000e+02 0.0000e+00 1.0000e+00
       21  1    1    2  504  505 +2.6088899907e+00 +4.0920938169e+01 -1.3165992801e+03 1.3172376376e+03 0.0000000000e+00 0.0000e+00 1.0000e+00
       21  1    1    2  505  502 -5.7651181825e+01 +4.1766133922e+01 -1.0105538416e+03 1.0130583081e+03 0.0000000000e+00 0.0000e+00 1.0000e+00
<mgrwt>
<rscale>  4 0.23783324E+03</rscale>
<asrwt>0</asrwt>
<pdfrwt beam="1">  1       21 0.75919820E-01 0.23783324E+03</pdfrwt>
<pdfrwt beam="2">  1       21 0.37724569E+00 0.23783324E+03</pdfrwt>
<totfact> 0.17123377E+01</totfact>
</mgrwt>
</event>
<event>
 6      1 +2.5168323e+02 2.40533800e+02 7.54677100e-03 1.16820100e-01
       21 -1    0    0  505  502 +0.0000000000e+00 +0.0000000000e+00 +7.0102027576e+02 7.0102027576e+02 0.0000000000e+00 0.0000e+00 -1.0000e+00
       21 -1    0    0  504  503 -0.0000000000e+00 -0.0000000000e+00 -9.0257053611e+02 9.0257053611e+02 0.0000000000e+00 0.0000e+00 1.0000e+00
        6  1    1    2  501    0 -4.6479501325e-01 -9.5760378475e+01 -1.5888428693e+02 2.5366017179e+02 1.7300000000e+02 0.0000e+00 1.0000e+00
       -6  1    1    2    0  503 +6.8932637277e+01 +2.1223719626e+02 -5.8329648825e+02 6.4804330810e+02 1.7300000000e+02 0.0000e+00 1.0000e+00
       21  1    1    2  504  502 -1.8633654793e+01 -8.7290285682e+00 -7.3531915213e+01 7.6356738966e+01 0.0000000000e+00 0.0000e+00 1.0000e+00
       21  1    1    2  505  501 -4.9834187471e+01 -1.0774778922e+02 +6.1416243004e+02 6.2553059301e+02 0.0000000000e+00 0.0000e+00 -1.0000e+00
<mgrwt>
<rscale>  4 0.24053379E+03</rscale>
<asrwt>0</asrwt>
<pdfrwt beam="1">  1       21 0.10784927E+00 0.24053379E+03</pdfrwt>
<pdfrwt beam="2">  1       21 0.13885700E+00 0.24053379E+03</pdfrwt>
<totfact> 0.23722076E+02</totfact>
</mgrwt>
</event>
<event>
 6      1 +2.5168323e+02 2.86243400e+02 7.54677100e-03 1.17132900e-01
       21 -1    0    0  505  502 +0.0000000000e+00 +0.0000000000e+00 +2.5467796903e+02 2.5467796903e+02 0.0000000000e+00 0.0000e+00 -1.0000e+00
       21 -1    0    0  504  503 -0.0000000000e+00 -0.0000000000e+00 -5.9540710692e+02 5.9540710692e+02 0.0000000000e+00 0.0000e+00 -1.0000e+00
        6  1    1    2  501    0 -5.6925528004e+01 +1.9494425384e+02 +6.3317218713e+00 2.6685739365e+02 1.7300000000e+02 0.0000e+00 -1.0000e+00
       -6  1    1    2    0  502 +1.3691411493e+02 -2.7078215930e+02 -2.9451660184e+02 4.5687797214e+02 1.7300000000e+02 0.0000e+00 -1.0000e+00
       21  1    1    2  504  501 -6.5437173403e+01 +4.2465062160e+01 -4.1176926081e+01 8.8209094819e+01 0.0000000000e+00 0.0000e+00 -1.0000e+00
       21  1    1    2  505  503 -1.4551413525e+01 +3.3372843303e+01 -1.1367331833e+01 3.8140615343e+01 0.0000000000e+00 0.0000e+00 -1.0000e+00
<mgrwt>
<rscale>  4 0.28624337E+03</rscale>
<asrwt>0</asrwt>
<pdfrwt beam="1">  1       21 0.39181227E-01 0.28624337E+03</pdfrwt>
<pdfrwt beam="2">  1       21 0.91601092E-01 0.28624337E+03</pdfrwt>
<totfact> 0.59656687E+03</totfact>
</mgrwt>
</event>
<event>
 6      1 +2.5168323e+02 3.10385800e+02 7.54677100e-03 1.12989000e-01
       21 -1    0    0  501  502 +0.0000000000e+00 +0.0000000000e+00 +1.4535832998e+03 1.4535832998e+03 0.0000000000e+00 0.0000e+00 1.0000e+00
       21 -1    0    0  502  503 -0.0000000000e+00 -0.0000000000e+00 -1.4016649337e+03 1.4016649337e+03 0.0000000000e+00 0.0000e+00 -1.0000e+00
        6  1    1    2  501    0 -2.6665482358e+02 +3.1103455635e+01 +7.4226478036e+02 8.0805830486e+02 1.7300000000e+02 0.0000e+00 1.0000e+00
       -6  1    1    2    0  505 +1.7427259423e+02 -2.4464857443e+02 +5.8430959963e+02 6.7938985148e+02 1.7300000000e+02 0.0000e+00 -1.0000e+00
       21  1    1    2  504  503 +1.7618497274e+02 +6.4191818782e+01 -1.1245292127e+03 1.1400560006e+03 0.0000000000e+00 0.0000e+00 -1.0000e+00
       21  1    1    2  505  504 -8.3802743394e+01 +1.4935330001e+02 -1.5012680113e+02 2.2774407664e+02 0.0000000000e+00 0.0000e+00 -1.0000e+00
<mgrwt>
<rscale>  4 0.31038580E+03</rscale>
<asrwt>0</asrwt>
<pdfrwt beam="1">  1       21 0.22362820E+00 0.31038580E+03</pdfrwt>
<pdfrwt beam="2">  1       21 0.21564076E+00 0.31038580E+03</pdfrwt>
<totfact> 0.85650633E+00</totfact>
</mgrwt>
</event>
<event>
 6      1 +2.5168323e+02 3.27195400e+02 7.54677100e-03 1.17132900e-01
       21 -1    0    0  505  502 +0.0000000000e+00 +0.0000000000e+00 +1.2909827139e+03 1.2909827139e+03 0.0000000000e+00 0.0000e+00 -1.0000e+00
       21 -1    0    0  504  503 -0.0000000000e+00 -0.0000000000e+00 -3.2330564486e+02 3.2330564486e+02 0.0000000000e+00 0.0000e+00 1.0000e+00
        6  1    1    2  501    0 -2.5117111328e+01 -6.9027930149e+01 +7.6946104075e+02 7.9208270885e+02 1.7300000000e+02 0.0000e+00 -1.0000e+00
       -6  1    1    2    0  502 -2.2769059448e+02 +2.1896639997e+02 +3.3492737763e+01 3.6171819779e+02 1.7300000000e+02 0.0000e+00 -1.0000e+00
       21  1    1    2  504  501 +2.1686238604e+02 -1.3935010097e+02 -3.2428244493e+01 2.5980634357e+02 0.0000000000e+00 0.0000e+00 1.0000e+00
       21  1    1    2  505  503 +3.5945319766e+01 -1.0588368852e+01 +1.9715153505e+02 2.0068110858e+02 0.0000000000e+00 0.0000e+00 1.0000e+00
<mgrwt>
<rscale>  4 0.28532223E+03</rscale>
<asrwt>0</asrwt>
<pdfrwt beam="1">  1       21 0.19861272E+00 0.32719539E+03</pdfrwt>
<pdfrwt beam="2">  1       21 0.49739331E-01 0.32719539E+03</pdfrwt>
<totfact> 0.46619115E+02</totfact>
</mgrwt>
</event>
<event>
 6      1 +2.5168323e+02 2.34909400e+02 7.54677100e-03 1.15942100e-01
       21 -1    0    0  504  502 +0.0000000000e+00 +0.0000000000e+00 +2.1478291330e+03 2.1478291330e+03 0.0000000000e+00 0.0000e+00 1.0000e+00
       21 -1    0    0  501  503 -0.0000000000e+00 -0.0000000000e+00 -2.0366711652e+02 2.0366711652e+02 0.0000000000e+00 0.0000e+00 -1.0000e+00
        6  1    1    2  501    0 -2.3202755903e+02 +2.0955274034e+02 +5.7103501203e+02 6.7361645178e+02 1.7300000000e+02 0.0000e+00 -1.0000e+00
       -6  1    1    2    0  502 +6.9512294046e+01 -1.1584585127e+02 +1.4104238741e+03 1.4274020895e+03 1.7300000000e+02 0.0000e+00 1.0000e+00
       21  1    1    2  504  505 +1.5370276685e+02 -4.2992011588e+00 -4.5257011694e+01 1.6028481143e+02 0.0000000000e+00 0.0000e+00 -1.0000e+00
       21  1    1    2  505  503 +8.8124981359e+00 -8.9407687907e+01 +7.9601419885e+00 9.0192896842e+01 0.0000000000e+00 0.0000e+00 -1.0000e+00
<mgrwt>
<rscale>  4 0.23490944E+03</rscale>
<asrwt>0</asrwt>
<pdfrwt beam="1">  1       21 0.33043524E+00 0.23490944E+03</pdfrwt>
<pdfrwt beam="2">  1       21 0.31333404E-01 0.23490944E+03</pdfrwt>
<totfact> 0.20941288E+02</totfact>
</mgrwt>
</event>
<event>
 6      1 +2.5168323e+02 1.83650800e+02 7.54677100e-03 1.17132900e-01
       21 -1    0    0  505  502 +0.0000000000e+00 +0.0000000000e+00 +1.0139296366e+03 1.0139296366e+03 0.0000000000e+00 0.0000e+00 1.0000e+00
       21 -1    0    0  504  503 -0.0000000000e+00 -0.0000000000e+00 -1.5852216395e+02 1.5852216395e+02 0.0000000000e+00 0.0000e+00 1.0000e+00
        6  1    1    2  501    0 +2.6313776264e+01 -5.3038081658e+01 +4.4741189218e+02 4.8333410204e+02 1.7300000000e+02 0.0000e+00 1.0000e+00
       -6  1    1    2    0  502 +5.0401131842e+00 +8.4387736180e+01 -1.1862871646e+01 1.9291557864e+02 1.7300000000e+02 0.0000e+00 1.0000e+00
       21  1    1    2  504  501 +1.4974349238e+00 -2.5855262535e+01 -3.3095952238e+01 4.2024742315e+01 0.0000000000e+00 0.0000e+00 -1.0000e+00
       21  1    1    2  505  503 -3.2851324372e+01 -5.4943919864e+00 +4.5295440437e+02 4.5417737757e+02 0.0000000000e+00 0.0000e+00 1.0000e+00
<mgrwt>
<rscale>  4 0.18365078E+03</rscale>
<asrwt>0</asrwt>
<pdfrwt beam="1">  1       21 0.15598917E+00 0.18365078E+03</pdfrwt>
<pdfrwt beam="2">  1       21 0.24388026E-01 0.18365078E+03</pdfrwt>
<totfact> 0.43130336E+03</totfact>
</mgrwt>
</event>
<event>
 6      1 +2.5168323e+02 1.94719500e+02 7.54677100e-03 1.11671100e-01
       21 -1    0    0  503  502 +0.0000000000e+00 +0.0000000000e+00 +3.6167691478e+02 3.6167691478e+02 0.0000000000e+00 0.0000e+00 -1.0000e+00
       21 -1    0    0  501  503 -0.0000000000e+00 -0.0000000000e+00 -7.6785447439e+02 7.6785447439e+02 0.0000000000e+00 0.0000e+00 1.0000e+00
        6  1    1    2  501    0 -1.6519371604e+01 -3.7888406835e+01 -2.6299530044e+02 3.1749637646e+02 1.7300000000e+02 0.0000e+00 1.0000e+00
       -6  1    1    2    0  504 +5.6438686793e+01 +1.2327569563e+02 -4.3452741957e+02 4.8695513228e+02 1.7300000000e+02 0.0000e+00 1.0000e+00
       21  1    1    2  504  505 -7.3882309025e+01 -3.3803455554e+01 +1.4449968649e+02 1.6577523515e+02 0.0000000000e+00 0.0000e+00 -1.0000e+00
       21  1    1    2  505  502 +3.3962993835e+01 -5.1583833236e+01 +1.4684547390e+02 1.5930464528e+02 0.0000000000e+00 0.0000e+00 -1.0000e+00
<mgrwt>
<rscale>  4 0.19471948E+03</rscale>
<asrwt>0</asrwt>
<pdfrwt beam="1">  1       21 0.55642603E-01 0.19471948E+03</pdfrwt>
<pdfrwt beam="2">  1       21 0.11813146E+00 0.19471948E+03</pdfrwt>
<totfact> 0.16676137E+03</totfact>
</mgrwt>
</event>
<event>
 6      1 +2.5168323e+02 2.52268100e+02 7.54677100e-03 1.16820100e-01
       21 -1    0    0  501  502 +0.0000000000e+00 +0.0000000000e+00 +8.0719884634e+02 8.0719884634e+02 0.0000000000e+00 0.0000e+00 -1.0000e+00
       21 -1    0    0  504  503 -0.0000000000e+00 -0.0000000000e+00 -8.2901990082e+02 8.2901990082e+02 0.0000000000e+00 0.0000e+00 1.0000e+00
        6  1    1    2  501    0 +1.7872172074e+01 +2.4574980584e+02 +1.8711275778e+02 3.5447505656e+02 1.7300000000e+02 0.0000e+00 -1.0000e+00
       -6  1    1    2    0  503 -5.0391662461e+00 -1.9294758899e+02 -5.7952275306e+02 6.3484627006e+02 1.7300000000e+02 0.0000e+00 1.0000e+00
       21  1    1    2  504  505 -2.2488892064e+01 +1.9903312405e+01 -1.3383814301e+02 1.3716610600e+02 0.0000000000e+00 0.0000e+00 -1.0000e+00
       21  1    1    2  505  502 +9.6558862365e+00 -7.2705529256e+01 +5.0442708382e+02 5.0973131453e+02 0.0000000000e+00 0.0000e+00 1.0000e+00
<mgrwt>
<rscale>  4 0.25226814E+03</rscale>
<asrwt>0</asrwt>
<pdfrwt beam="1">  1       21 0.12418444E+00 0.25226814E+03</pdfrwt>
<pdfrwt beam="2">  1       21 0.12754152E+00 0.25226814E+03</pdfrwt>
<totfact> 0.20582510E+02</totfact>
</mgrwt>
</event>
<event>
 6      1 +2.5168323e+02 2.39382100e+02 7.54677100e-03 1.11471900e-01
       21 -1    0    0  503  502 +0.0000000000e+00 +0.0000000000e+00 +4.9687672332e+02 4.9687672332e+02 0.0000000000e+00 0.0000e+00 1.0000e+00
       21 -1    0    0  501  503 -0.0000000000e+00 -0.0000000000e+00 -4.9171091877e+02 4.9171091877e+02 0.0000000000e+00 0.0000e+00 -1.0000e+00
        6  1    1    2  501    0 -2.6231952124e+01 +1.4943755993e+02 -3.7076810500e+01 2.3307378554e+02 1.7300000000e+02 0.0000e+00 -1.0000e+00
       -6  1    1    2    0  504 -3.9665447092e+01 -1.8218780981e+02 -2.2672701829e+00 2.5436172324e+02 1.7300000000e+02 0.0000e+00 1.0000e+00
       21  1    1    2  504  505 +1.4711647312e+02 +6.7480499785e+00 -1.9646356833e+02 2.4553355478e+02 0.0000000000e+00 0.0000e+00 -1.0000e+00
       21  1    1    2  505  502 -8.1219073907e+01 +2.6002199902e+01 +2.4097345356e+02 2.5561857852e+02 0.0000000000e+00 0.0000e+00 1.0000e+00
<mgrwt>
<rscale>  4 0.23938214E+03</rscale>
<asrwt>0</asrwt>
<pdfrwt beam="1">  1       21 0.76442573E-01 0.23938214E+03</pdfrwt>
<pdfrwt beam="2">  1       21 0.75647834E-01 0.23938214E+03</pdfrwt>
<totfact> 0.22875187E+03</totfact>
</mgrwt>
</event>
<event>
 6      1 +2.5168323e+02 2.56422700e+02 7.54677100e-03 1.05831300e-01
       21 -1    0    0  504  502 +0.0000000000e+00 +0.0000000000e+00 +1.3534104790e+02 1.3534104790e+02 0.0000000000e+00 0.0000e+00 -1.0000e+00
       21 -1    0    0  501  503 -0.0000000000e+00 -0.0000000000e+00 -1.1703922322e+03 1.1703922322e+03 0.0000000000e+00 0.0000e+00 1.0000e+00
        6  1    1    2  501    0 +1.5392153932e+02 -1.6945261543e+02 -7.1237822820e+02 7.6799594345e+02 1.7300000000e+02 0.0000e+00 1.0000e+00
       -6  1    1    2    0  505 -8.8600689715e+01 +1.1102324559e+02 -3.4341180434e+02 4.0992305454e+02 1.7300000000e+02 0.0000e+00 1.0000e+00
       21  1    1    2  504  503 -4.2643811417e+01 +4.6317671383e+01 -3.0897557326e+01 7.0131878509e+01 0.0000000000e+00 0.0000e+00 1.0000e+00
       21  1    1    2  505  502 -2.2677038190e+01 +1.2111698461e+01 +5.1636405596e+01 5.7682403587e+01 0.0000000000e+00 0.0000e+00 -1.0000e+00
<mgrwt>
<rscale>  4 0.25642272E+03</rscale>
<asrwt>0</asrwt>
<pdfrwt beam="1">  1       21 0.20821700E-01 0.25642272E+03</pdfrwt>
<pdfrwt beam="2">  1       21 0.18006034E+00 0.25642272E+03</pdfrwt>
<totfact> 0.36940025E+03</totfact>
</mgrwt>
</event>
<event>
 6      1 +2.5168323e+02 1.76736800e+02 7.54677100e-03 1.06249800e-01
       21 -1    0    0  505  502 +0.0000000000e+00 +0.0000000000e+00 +3.8414744203e+02 3.8414744203e+02 0.0000000000e+00 0.0000e+00 -1.0000e+00
       21 -1    0    0  501  503 -0.0000000000e+00 -0.0000000000e+00 -4.6771269689e+02 4.6771269689e+02 0.0000000000e+00 0.0000e+00 -1.0000e+00
        6  1    1    2  501    0 +7.1083421214e+00 -3.6189674727e+01 -2.6297341807e+02 3.1692939228e+02 1.7300000000e+02 0.0000e+00 1.0000e+00
       -6  1    1    2    0  502 +1.0697995239e+02 -4.6468948912e+00 -1.0105036869e+02 2.2717059858e+02 1.7300000000e+02 0.0000e+00 -1.0000e+00
       21  1    1    2  504  503 -5.5173434315e+01 +1.6814455413e+01 +8.9448863379e+01 1.0643276246e+02 0.0000000000e+00 0.0000e+00 -1.0000e+00
       21  1    1    2  505  504 -5.8914860197e+01 +2.4022114205e+01 +1.9100966852e+02 2.0132738560e+02 0.0000000000e+00 0.0000e+00 -1.0000e+00
<mgrwt>
<rscale>  4 0.17673677E+03</rscale>
<asrwt>0</asrwt>
<pdfrwt beam="1">  1       21 0.59099607E-01 0.17673677E+03</pdfrwt>
<pdfrwt beam="2">  1       21 0.71955799E-01 0.17673677E+03</pdfrwt>
<totfact> 0.47267900E+03</totfact>
</mgrwt>
</event>
<event>
 6      1 +2.5168323e+02 2.73335500e+02 7.54677100e-03 1.17132900e-01
       21 -1    0    0  505  502 +0.0000000000e+00 +0.0000000000e+00 +3.0168376787e+02 3.0168376787e+02 0.0000000000e+00 0.0000e+00 -1.0000e+00
       21 -1    0    0  504  503 -0.0000000000e+00 -0.0000000000e+00 -6.1231042243e+02 6.1231042243e+02 0.0000000000e+00 0.0000e+00 -1.0000e+00
        6  1    1    2  501    0 -1.7113853878e+02 +5.8885571450e+01 -9.8845460295e+01 2.6917528676e+02 1.7300000000e+02 0.0000e+00 -1.0000e+00
       -6  1    1    2    0  502 +2.3702420362e+02 +1.3260470587e+02 +1.0664328924e+01 3.2219126157e+02 1.7300000000e+02 0.0000e+00 -1.0000e+00
       21  1    1    2  504  501 -3.1357863514e+01 -2.7039149687e+01 -1.1732986965e+02 1.2442157985e+02 0.0000000000e+00 0.0000e+00 -1.0000e+00
       21  1    1    2  505  503 -3.4527801327e+01 -1.6445112763e+02 -1.0511565354e+02 1.9820606212e+02 0.0000000000e+00 0.0000e+00 -1.0000e+00
<mgrwt>
<rscale>  4 0.27333551E+03</rscale>
<asrwt>0</asrwt>
<pdfrwt beam="1">  1       21 0.46412888E-01 0.27333551E+03</pdfrwt>
<pdfrwt beam="2">  1       21 0.94201603E-01 0.27333551E+03</pdfrwt>
<totfact> 0.39703861E+03</totfact>
</mgrwt>
</event>
<event>
 6      1 +2.5168323e+02 1.79965500e+02 7.54677100e-03 1.16820100e-01
       21 -1    0    0  504  502 +0.0000000000e+00 +0.0000000000e+00 +3.4430159076e+02 3.4430159076e+02 0.0000000000e+00 0.0000e+00 1.0000e+00
       21 -1    0    0  501  503 -0.0000000000e+00 -0.0000000000e+00 -3.6646047155e+03 3.6646047155e+03 0.0000000000e+00 0.0000e+00 1.0000e+00
        6  1    1    2  501    0 -4.5031168607e+01 +2.6481394600e+01 -2.0538313201e+03 2.0617665149e+03 1.7300000000e+02 0.0000e+00 1.0000e+00
       -6  1    1    2    0  505 +3.3858765269e+01 -6.3231028957e+01 -3.7069140135e+02 4.1531397044e+02 1.7300000000e+02 0.0000e+00 1.0000e+00
       21  1    1    2  504  503 +4.1696607762e+01 +2.1752662993e+01 -1.2124366759e+03 1.2133484571e+03 0.0000000000e+00 0.0000e+00 1.0000e+00
       21  1    1    2  505  502 -3.0524204424e+01 +1.4996971364e+01 +3.1665627266e+02 3.1847736374e+02 0.0000000000e+00 0.0000e+00 1.0000e+00
<mgrwt>
<rscale>  4 0.17996549E+03</rscale>
<asrwt>0</asrwt>
<pdfrwt beam="1">  1       21 0.52969474E-01 0.17996549E+03</pdfrwt>
<pdfrwt beam="2">  1       21 0.56378536E+00 0.17996549E+03</pdfrwt>
<totfact> 0.22537301E+00</totfact>
</mgrwt>
</event>
<event>
 6      1 +2.5168323e+02 2.40475700e+02 7.54677100e-03 1.16820100e-01
       21 -1    0    0  505  502 +0.0000000000e+00 +0.0000000000e+00 +1.1048917186e+02 1.1048917186e+02 0.0000000000e+00 0.0000e+00 1.0000e+00
       21 -1    0    0  501  503 -0.0000000000e+00 -0.0000000000e+00 -1.0447784217e+03 1.0447784217e+03 0.0000000000e+00 0.0000e+00 -1.0000e+00
        6  1    1    2  501    0 +5.8143446874e+01 +1.2180667755e+02 -5.0028947728e+02 5.4629304241e+02 1.7300000000e+02 0.0000e+00 1.0000e+00
       -6  1    1    2    0  502 -5.6921163170e+01 -1.9396635332e+02 -1.5276849256e+02 3.0680641674e+02 1.7300000000e+02 0.0000e+00 -1.0000e+00
       21  1    1    2  504  503 -7.4868426211e+00 +4.0003117022e+01 -2.5991666176e+02 2.6308358605e+02 0.0000000000e+00 0.0000e+00 -1.0000e+00
       21  1    1    2  505  504 +6.2645589171e+00 +3.2156558743e+01 -2.1314618216e+01 3.9084548332e+01 0.0000000000e+00 0.0000e+00 1.0000e+00
<mgrwt>
<rscale>  4 0.24047567E+03</rscale>
<asrwt>0</asrwt>
<pdfrwt beam="1">  1       21 0.16998334E-01 0.24047567E+03</pdfrwt>
<pdfrwt beam="2">  1       21 0.16073514E+00 0.24047567E+03</pdfrwt>
<totfact> 0.74858208E+03</totfact>
</mgrwt>
</event>
<event>
 6      1 +2.5168323e+02 2.94835700e+02 7.54677100e-03 1.09842800e-01
       21 -1    0    0  505  502 +0.0000000000e+00 +0.0000000000e+00 +2.3844881140e+02 2.3844881140e+02 0.0000000000e+00 0.0000e+00 -1.0000e+00
       21 -1    0    0  504  503 -0.0000000000e+00 -0.0000000000e+00 -1.2842030460e+03 1.2842030460e+03 0.0000000000e+00 0.0000e+00 -1.0000e+00
        6  1    1    2  501    0 +1.1807598525e+02 +1.8222794789e+02 -1.0566852571e+03 1.0925482579e+03 1.7300000000e+02 0.0000e+00 -1.0000e+00
       -6  1    1    2    0  502 -1.0104160803e+02 -1.5645998770e+02 +7.9097495431e+01 2.6622274150e+02 1.7300000000e+02 0.0000e+00 -1.0000e+00
       21  1    1    2  504  501 +5.3109939312e+01 +3.8321826118e+00 -6.9723436952e+01 8.7730889302e+01 0.0000000000e+00 0.0000e+00 -1.0000e+00
       21  1    1    2  505  503 -7.0144316531e+01 -2.9600142798e+01 +1.5569640283e+00 7.6149968695e+01 0.0000000000e+00 0.0000e+00 -1.0000e+00
<mgrwt>
<rscale>  4 0.29483571E+03</rscale>
<asrwt>0</asrwt>
<pdfrwt beam="1">  1       21 0.36684432E-01 0.29483571E+03</pdfrwt>
<pdfrwt beam="2">  1       21 0.19756970E+00 0.29483571E+03</pdfrwt>
<totfact> 0.90841711E+02</totfact>
</mgrwt>
</event>
<event>
 6      1 +2.5168323e+02 1.80775600e+02 7.54677100e-03 1.11910500e-01
       21 -1    0    0  501  502 +0.0000000000e+00 +0.0000000000e+00 +1.5322775043e+03 1.5322775043e+03 0.0000000000e+00 0.0000e+00 -1.0000e+00
       21 -1    0    0  505  503 -0.0000000000e+00 -0.0000000000e+00 -2.7542437392e+02 2.7542437392e+02 0.0000000000e+00 0.0000e+00 -1.0000e+00
        6  1    1    2  501    0 -2.3003701436e+01 +2.2898358448e+01 +9.6423103694e+02 9.8016529101e+02 1.7300000000e+02 0.0000e+00 -1.0000e+00
       -6  1    1    2    0  504 +3.7857670287e+00 -1.2620804118e+02 +4.6891515012e+02 5.1551257957e+02 1.7300000000e+02 0.0000e+00 1.0000e+00
       21  1    1    2  504  503 +2.0312521332e+01 -7.4149195107e+01 -3.1886547594e+01 8.3231325685e+01 0.0000000000e+00 0.0000e+00 1.0000e+00
       21  1    1    2  505  502 -1.0945869241e+00 +1.7745887784e+02 -1.4440650909e+02 2.2879268194e+02 0.0000000000e+00 0.0000e+00 -1.0000e+00
<mgrwt>
<rscale>  4 0.18077559E+03</rscale>
<asrwt>0</asrwt>
<pdfrwt beam="1">  1       21 0.23573500E+00 0.18077559E+03</pdfrwt>
<pdfrwt beam="2">  1       21 0.42372981E-01 0.18077559E+03</pdfrwt>
<totfact> 0.43992956E+02</totfact>
</mgrwt>
</event>
<event>
 6      1 +2.5168323e+02 2.03438900e+02 7.54677100e-03 1.07240600e-01
       21 -1    0    0  505  502 +0.0000000000e+00 +0.0000000000e+00 +2.0729658470e+02 2.0729658470e+02 0.0000000000e+00 0.0000e+00 -1.0000e+00
       21 -1    0    0  504  503 -0.0000000000e+00 -0.0000000000e+00 -2.1062621495e+03 2.1062621495e+03 0.0000000000e+00 0.0000e+00 -1.0000e+00
        6  1    1    2  501    0 -1.0101274327e+01 -1.4365339682e+02 -5.1578101897e+02 5.6275873489e+02 1.7300000000e+02 0.0000e+00 1.0000e+00
       -6  1    1    2    0  502 -9.2223980672e+01 +6.0458658111e+01 +1.1833196030e+02 2.3683742267e+02 1.7300000000e+02 0.0000e+00 -1.0000e+00
       21  1    1    2  504  501 +1.6121368767e+01 -2.3790929840e+01 -6.7287738916e+01 7.3167934793e+01 0.0000000000e+00 0.0000e+00 -1.0000e+00
       21  1    1    2  505  503 +8.6203886232e+01 +1.0698566855e+02 -1.4342287672e+03 1.4407946418e+03 0.0000000000e+00 0.0000e+00 -1.0000e+00
<mgrwt>
<rscale>  4 0.20343892E+03</rscale>
<asrwt>0</asrwt>
<pdfrwt beam="1">  1       21 0.31891781E-01 0.20343892E+03</pdfrwt>
<pdfrwt beam="2">  1       21 0.32404034E+00 0.20343892E+03</pdfrwt>
<totfact> 0.23060350E+02</totfact>
</mgrwt>
</event>
<event>
 6      1 +2.5168323e+02 1.96249000e+02 7.54677100e-03 1.11471900e-01
       21 -1    0    0  503  502 +0.0000000000e+00 +0.0000000000e+00 +6.4063434830e+01 6.4063434830e+01 0.0000000000e+00 0.0000e+00 1.0000e+00
       21 -1    0    0  501  503 -0.0000000000e+00 -0.0000000000e+00 -9.8203574379e+02 9.8203574379e+02 0.0000000000e+00 0.0000e+00 1.0000e+00
        6  1    1    2  501    0 -6.3899689570e+01 -1.0265783968e+02 -4.1946253629e+02 4.6957387249e+02 1.7300000000e+02 0.0000e+00 -1.0000e+00
       -6  1    1    2    0  505 +7.3537455012e+00 +7.0872032337e+01 -3.2080825379e+02 3.7138101492e+02 1.7300000000e+02 0.0000e+00 -1.0000e+00
       21  1    1    2  504  502 -5.8075777395e+00 +3.8725035328e+01 -7.9350985469e+01 8.8486921154e+01 0.0000000000e+00 0.0000e+00 1.0000e+00
       21  1    1    2  505  504 +6.2353521808e+01 -6.9392279826e+00 -9.8350533407e+01 1.1665737006e+02 0.0000000000e+00 0.0000e+00 1.0000e+00
<mgrwt>
<rscale>  4 0.19624897E+03</rscale>
<asrwt>0</asrwt>
<pdfrwt beam="1">  1       21 0.98559131E-02 0.19624897E+03</pdfrwt>
<pdfrwt beam="2">  1       21 0.15108242E+00 0.19624897E+03</pdfrwt>
<totfact> 0.24359905E+04</totfact>
</mgrwt>
</event>
<event>
 6      1 +2.5168323e+02 2.65495600e+02 7.54677100e-03 1.12068800e-01
       21 -1    0    0  504  502 +0.0000000000e+00 +0.0000000000e+00 +1.5658052385e+02 1.5658052385e+02 0.0000000000e+00 0.0000e+00 1.0000e+00
       21 -1    0    0  502  503 -0.0000000000e+00 -0.0000000000e+00 -9.4919685637e+02 9.4919685637e+02 0.0000000000e+00 0.0000e+00 1.0000e+00
        6  1    1    2  501    0 +1.0286627888e+01 -2.0104735795e+02 -4.7516952204e+01 2.6965295400e+02 1.7300000000e+02 0.0000e+00 1.0000e+00
       -6  1    1    2    0  505 +5.8042028769e+01 +2.0203155722e+02 -4.5027070933e+02 5.2617329740e+02 1.7300000000e+02 0.0000e+00 1.0000e+00
       21  1    1    2  504  501 -5.6775470293e+01 +2.3874862743e+01 -1.4349377632e+02 1.5615353643e+02 0.0000000000e+00 0.0000e+00 1.0000e+00
       21  1    1    2  505  503 -1.1553186364e+01 -2.4859062010e+01 -1.5133489467e+02 1.5379759239e+02 0.0000000000e+00 0.0000e+00 1.0000e+00
<mgrwt>
<rscale>  4 0.26549565E+03</rscale>
<asrwt>0</asrwt>
<pdfrwt beam="1">  1       21 0.24089312E-01 0.26549565E+03</pdfrwt>
<pdfrwt beam="2">  1       21 0.14603028E+00 0.26549565E+03</pdfrwt>
<totfact> 0.49436415E+03</totfact>
</mgrwt>
</event>
<event>
 6      1 +2.5168323e+02 2.78882300e+02 7.54677100e-03 1.05854100e-01
       21 -1    0    0  505  502 +0.0000000000e+00 +0.0000000000e+00 +1.0455991053e+03 1.0455991053e+03 0.0000000000e+00 0.0000e+00 1.0000e+00
       21 -1    0    0  501  503 -0.0000000000e+00 -0.0000000000e+00 -2.7278118420e+02 2.7278118420e+02 0.0000000000e+00 0.0000e+00 1.0000e+00
        6  1    1    2  501    0 +1.5653724505e+02 -1.6031358753e+02 -1.3865305724e+02 3.1521108121e+02 1.7300000000e+02 0.0000e+00 1.0000e+00
       -6  1    1    2    0  502 -1.1041774533e+02 +7.1728823181e+01 +4.8944527876e+02 5.3555838473e+02 1.7300000000e+02 0.0000e+00 1.0000e+00
       21  1    1    2  504  503 -1.0364911633e+01 -3.3572396190e+01 +1.0233045099e+01 3.6595797451e+01 0.0000000000e+00 0.0000e+00 1.0000e+00
       21  1    1    2  505  504 -3.5754588095e+01 +1.2215716054e+02 +4.1179265444e+02 4.3101502606e+02 0.0000000000e+00 0.0000e+00 1.0000e+00
<mgrwt>
<rscale>  4 0.27888232E+03</rscale>
<asrwt>0</asrwt>
<pdfrwt beam="1">  1       21 0.16086140E+00 0.27888232E+03</pdfrwt>
<pdfrwt beam="2">  1       21 0.41966337E-01 0.27888232E+03</pdfrwt>
<totfact> 0.12582452E+03</totfact>
</mgrwt>
</event>
<event>
 6      1 +2.5168323e+02 3.21305400e+02 7.54677100e-03 1.16820100e-01
       21 -1    0    0  501  502 +0.0000000000e+00 +0.0000000000e+00 +6.8856552917e+02 6.8856552917e+02 0.0000000000e+00 0.0000e+00 -1.0000e+00
       21 -1    0    0  504  503 -0.0000000000e+00 -0.0000000000e+00 -5.0143667120e+02 5.0143667120e+02 0.0000000000e+00 0.0000e+00 -1.0000e+00
        6  1    1    2  501    0 +7.8872422993e+01 -2.6739670893e+02 +5.4974224062e+02 6.4020886450e+02 1.7300000000e+02 0.0000e+00 -1.0000e+00
       -6  1    1    2    0  503 -3.3907631716e+01 +2.1473439565e+02 -2.4754069542e+02 3.7211017730e+02 1.7300000000e+02 0.0000e+00 -1.0000e+00
       21  1    1    2  504  505 +2.6240989412e+01 -1.9409931795e+01 -1.7551145088e+01 3.7059110506e+01 0.0000000000e+00 0.0000e+00 -1.0000e+00
       21  1    1    2  505  502 -7.1205780689e+01 +7.2072245075e+01 -9.7521542136e+01 1.4062404807e+02 0.0000000000e+00 0.0000e+00 1.0000e+00
<mgrwt>
<rscale>  4 0.32130536E+03</rscale>
<asrwt>0</asrwt>
<pdfrwt beam="1">  1       21 0.10593316E+00 0.32130536E+03</pdfrwt>
<pdfrwt beam="2">  1       21 0.77144103E-01 0.32130536E+03</pdfrwt>
<totfact> 0.96555057E+02</totfact>
</mgrwt>
</event>
<event>
 6      1 +2.5168323e+02 2.26871000e+02 7.54677100e-03 1.11910500e-01
       21 -1    0    0  501  502 +0.0000000000e+00 +0.0000000000e+00 +3.8658314366e+02 3.8658314366e+02 0.0000000000e+00 0.0000e+00 1.0000e+00
       21 -1    0    0  505  503 -0.0000000000e+00 -0.0000000000e+00 -2.8906517647e+02 2.8906517647e+02 0.0000000000e+00 0.0000e+00 1.0000e+00
        6  1    1    2  501    0 +1.6983774658e+02 -5.5447710951e+01 +1.1403999276e+02 2.7359354663e+02 1.7300000000e+02 0.0000e+00 1.0000e+00
       -6  1    1    2    0  504 -9.7125535629e+01 +7.9954013905e+01 +1.1435295729e+02 2.4255228890e+02 1.7300000000e+02 0.0000e+00 1.0000e+00
       21  1    1    2  504  503 -4.1183956553e+01 -1.1429225516e+01 -2.7956552957e+01 5.1071658740e+01 0.0000000000e+00 0.0000e+00 1.0000e+00
       21  1    1    2  505  502 -3.1528254395e+01 -1.3077077437e+01 -1.0291842990e+02 1.0843082584e+02 0.0000000000e+00 0.0000e+00 1.0000e+00
<mgrwt>
<rscale>  4 0.22687100E+03</rscale>
<asrwt>0</asrwt>
<pdfrwt beam="1">  1       21 0.59474330E-01 0.22687100E+03</pdfrwt>
<pdfrwt beam="2">  1       21 0.44471565E-01 0.22687100E+03</pdfrwt>
<totfact> 0.12546508E+04</totfact>
</mgrwt>
</event>
<event>
 6      1 +2.5168323e+02 3.11842300e+02 7.54677100e-03 1.17132900e-01
       21 -1    0    0  503  502 +0.0000000000e+00 +0.0000000000e+00 +7.4264526210e+02 7.4264526210e+02 0.0000000000e+00 0.0000e+00 -1.0000e+00
       21 -1    0    0  504  503 -0.0000000000e+00 -0.0000000000e+00 -2.4873813371e+02 2.4873813371e+02 0.0000000000e+00 0.0000e+00 1.0000e+00
        6  1    1    2  501    0 +2.8918404894e+02 -8.8831987209e+01 +2.0400162051e+01 3.4908982042e+02 1.7300000000e+02 0.0000e+00 1.0000e+00
       -6  1    1    2    0  505 -2.2464787461e+02 +5.7168598905e+01 +3.6243088349e+02 4.6370255722e+02 1.7300000000e+02 0.0000e+00 -1.0000e+00
       21  1    1    2  504  501 -5.1026335475e+01 -4.4704820283e-01 -1.0521417542e+01 5.2101698544e+01 0.0000000000e+00 0.0000e+00 -1.0000e+00
       21  1    1    2  505  502 -1.3509838847e+01 +3.2110436507e+01 +1.2159750039e+02 1.2648931962e+02 0.0000000000e+00 0.0000e+00 1.0000e+00
<mgrwt>
<rscale>  4 0.31184234E+03</rscale>
<asrwt>0</asrwt>
<pdfrwt beam="1">  1       21 0.11425312E+00 0.31184234E+03</pdfrwt>
<pdfrwt beam="2">  1       21 0.38267406E-01 0.31184234E+03</pdfrwt>
<totfact> 0.36223682E+03</totfact>
</mgrwt>
</event>
<event>
 6      1 +2.5168323e+02 1.75751600e+02 7.54677100e-03 1.11471900e-01
       21 -1    0    0  503  502 +0.0000000000e+00 +0.0000000000e+00 +8.2971030789e+02 8.2971030789e+02 0.0000000000e+00 0.0000e+00 -1.0000e+00
       21 -1    0    0  501  503 -0.0000000000e+00 -0.0000000000e+00 -1.9186267423e+02 1.9186267423e+02 0.0000000000e+00 0.0000e+00 1.0000e+00
        6  1    1    2  501    0 +4.8527321098e+01 -1.0941353834e+02 +2.0944947967e+02 2.9685738630e+02 1.7300000000e+02 0.0000e+00 1.0000e+00
       -6  1    1    2    0  504 -2.4370040076e+01 -1.3457458872e+01 -6.2772163260e+01 1.8612991843e+02 1.7300000000e+02 0.0000e+00 -1.0000e+00
       21  1    1    2  504  505 +1.1437438244e+01 +8.6738166386e+01 +6.3960731756e+01 1.0837573395e+02 0.0000000000e+00 0.0000e+00 -1.0000e+00
       21  1    1    2  505  502 -3.5594719267e+01 +3.6132830829e+01 +4.2720958549e+02 4.3020994345e+02 0.0000000000e+00 0.0000e+00 -1.0000e+00
<mgrwt>
<rscale>  4 0.17575161E+03</rscale>
<asrwt>0</asrwt>
<pdfrwt beam="1">  1       21 0.12764774E+00 0.17575161E+03</pdfrwt>
<pdfrwt beam="2">  1       21 0.29517335E-01 0.17575161E+03</pdfrwt>
<totfact> 0.50486767E+03</totfact>
</mgrwt>
</event>
<event>
 6      1 +2.5168323e+02 1.94913700e+02 7.54677100e-03 1.11910500e-01
       21 -1    0    0  501  502 +0.0000000000e+00 +0.0000000000e+00 +5.9282900630e+02 5.9282900630e+02 0.0000000000e+00 0.0000e+00 1.0000e+00
       21 -1    0    0  504  503 -0.0000000000e+00 -0.0000000000e+00 -3.1239283947e+02 3.1239283947e+02 0.0000000000e+00 0.0000e+00 1.0000e+00
        6  1    1    2  501    0 -2.3580552900e+00 +8.7503896647e+01 +4.3607607545e+02 4.7723561888e+02 1.7300000000e+02 0.0000e+00 1.0000e+00
       -6  1    1    2    0  503 -9.5418150073e+01 -1.0195834203e+02 -6.3661256700e+01 2.3126150237e+02 1.7300000000e+02 0.0000e+00 1.0000e+00
       21  1    1    2  504  505 +3.5737330566e+01 +3.7511924208e+01 -1.1541669292e+02 1.2651211112e+02 0.0000000000e+00 0.0000e+00 1.0000e+00
       21  1    1    2  505  502 +6.2038874798e+01 -2.3057478829e+01 +2.3438041003e+01 7.0212613412e+01 0.0000000000e+00 0.0000e+00 1.0000e+00
<mgrwt>
<rscale>  4 0.19491368E+03</rscale>
<asrwt>0</asrwt>
<pdfrwt beam="1">  1       21 0.91204463E-01 0.19491368E+03</pdfrwt>
<pdfrwt beam="2">  1       21 0.48060437E-01 0.19491368E+03</pdfrwt>
<totfact> 0.42069273E+03</totfact>
</mgrwt>
</event>
<event>
 6      1 +2.5168323e+02 1.74635600e+02 7.54677100e-03 1.07064900e-01
       21 -1    0    0  505  502 +0.0000000000e+00 +0.0000000000e+00 +2.7705448425e+02 2.7705448425e+02 0.0000000000e+00 0.0000e+00 -1.0000e+00
       21 -1    0    0  501  503 -0.0000000000e+00 -0.0000000000e+00 -7.5919306771e+02 7.5919306771e+02 0.0000000000e+00 0.0000e+00 -1.0000e+00
        6  1    1    2  501    0 -6.2479911959e-01 +2.8895013796e+01 -4.6155049156e+02 4.9375415791e+02 1.7300000000e+02 0.0000e+00 1.0000e+00
       -6  1    1    2    0  502 +2.0097708174e+01 -1.1402884029e+01 -2.3836243626e+02 2.9543120123e+02 1.7300000000e+02 0.0000e+00 -1.0000e+00
       21  1    1    2  504  503 -4.9033864284e+00 -3.4709326105e+01 +7.8403189701e+00 3.5920065683e+01 0.0000000000e+00 0.0000e+00 -1.0000e+00
       21  1    1    2  505  504 -1.4569522626e+01 +1.7217196338e+01 +2.0993402539e+02 2.1114212715e+02 0.0000000000e+00 0.0000e+00 -1.0000e+00
<mgrwt>
<rscale>  4 0.17463561E+03</rscale>
<asrwt>0</asrwt>
<pdfrwt beam="1">  1       21 0.42623768E-01 0.17463561E+03</pdfrwt>
<pdfrwt beam="2">  1       21 0.11679893E+00 0.17463561E+03</pdfrwt>
<totfact> 0.30375709E+03</totfact>
</mgrwt>
</event>
<event>
 6      1 +2.5168323e+02 3.55220100e+02 7.54677100e-03 1.16820100e-01
       21 -1    0    0  501  502 +0.0000000000e+00 +0.0000000000e+00 +1.6557989863e+03 1.6557989863e+03 0.0000000000e+00 0.0000e+00 -1.0000e+00
       21 -1    0    0  504  503 -0.0000000000e+00 -0.0000000000e+00 -3.0026965956e+02 3.0026965956e+02 0.0000000000e+00 0.0000e+00 1.0000e+00
        6  1    1    2  501    0 +3.2227761527e+02 +5.4408244386e+01 +1.2640181460e+03 1.3170018951e+03 1.7300000000e+02 0.0000e+00 -1.0000e+00
       -6  1    1    2    0  503 -2.6278380189e+02 +7.3083519139e+01 +1.8576493351e+02 3.7260453275e+02 1.7300000000e+02 0.0000e+00 1.0000e+00
       21  1    1    2  504  505 -6.4754541482e+01 -6.3796567566e+01 -1.5409441612e+02 1.7890847313e+02 0.0000000000e+00 0.0000e+00 1.0000e+00
       21  1    1    2  505  502 +5.2607281079e+00 -6.3695195959e+01 +5.9840663411e+01 8.7553744899e+01 0.0000000000e+00 0.0000e+00 1.0000e+00
<mgrwt>
<rscale>  4 0.35522008E+03</rscale>
<asrwt>0</asrwt>
<pdfrwt beam="1">  1       21 0.25473830E+00 0.35522008E+03</pdfrwt>
<pdfrwt beam="2">  1       21 0.46195333E-01 0.35522008E+03</pdfrwt>
<totfact> 0.23729333E+02</totfact>
</mgrwt>
</event>
<event>
 6      1 +2.5168323e+02 1.93353400e+02 7.54677100e-03 1.17132900e-01
       21 -1    0    0  503  502 +0.0000000000e+00 +0.0000000000e+00 +4.5508494263e+02 4.5508494263e+02 0.0000000000e+00 0.0000e+00 1.0000e+00
       21 -1    0    0  504  503 -0.0000000000e+00 -0.0000000000e+00 -4.5717931693e+02 4.5717931693e+02 0.0000000000e+00 0.0000e+00 1.0000e+00
        6  1    1    2  501    0 -9.8568543361e+01 -5.0342228159e+00 -1.4453051474e+02 2.4608772995e+02 1.7300000000e+02 0.0000e+00 -1.0000e+00
       -6  1    1    2    0  505 +3.4301862032e+01 -1.1903434421e+02 -1.6131748928e+02 2.6701708782e+02 1.7300000000e+02 0.0000e+00 1.0000e+00
       21  1    1    2  504  501 +4.4001991167e+01 +6.9287921209e+00 -2.3939211412e+01 5.0569449571e+01 0.0000000000e+00 0.0000e+00 1.0000e+00
       21  1    1    2  505  502 +2.0264690162e+01 +1.1713977491e+02 +3.2769284115e+02 3.4858999221e+02 0.0000000000e+00 0.0000e+00 1.0000e+00
<mgrwt>
<rscale>  4 0.19335339E+03</rscale>
<asrwt>0</asrwt>
<pdfrwt beam="1">  1       21 0.70013068E-01 0.19335339E+03</pdfrwt>
<pdfrwt beam="2">  1       21 0.70335279E-01 0.19335339E+03</pdfrwt>
<totfact> 0.33941187E+03</totfact>
</mgrwt>
</event>
<event>
 6      1 +2.5168323e+02 2.25021900e+02 7.54677100e-03 1.07240600e-01
       21 -1    0    0  505  502 +0.0000000000e+00 +0.0000000000e+00 +2.3237360176e+03 2.3237360176e+03 0.0000000000e+00 0.0000e+00 1.0000e+00
       21 -1    0    0  504  503 -0.0000000000e+00 -0.0000000000e+00 -9.4970945228e+01 9.4970945228e+01 0.0000000000e+00 0.0000e+00 -1.0000e+00
        6  1    1    2  501    0 -1.4657855556e+02 -2.0750505395e+01 +1.2710404713e+03 1.2912740747e+03 1.7300000000e+02 0.0000e+00 1.0000e+00
       -6  1    1    2    0  502 +1.3929757550e+02 +5.7388965015e-01 +9.3195747760e+02 9.5805943654e+02 1.7300000000e+02 0.0000e+00 1.0000e+00
       21  1    1    2  504  501 -3.1527728413e+01 +2.4955508186e+01 +8.7501296297e+01 9.6297725318e+01 0.0000000000e+00 0.0000e+00 1.0000e+00
       21  1    1    2  505  503 +3.8808708468e+01 -4.7788924419e+00 -6.1734172837e+01 7.3075726215e+01 0.0000000000e+00 0.0000e+00 -1.0000e+00
<mgrwt>
<rscale>  4 0.22502193E+03</rscale>
<asrwt>0</asrwt>
<pdfrwt beam="1">  1       21 0.35749780E+00 0.22502193E+03</pdfrwt>
<pdfrwt beam="2">  1       21 0.14610916E-01 0.22502193E+03</pdfrwt>
<totfact> 0.62031271E+02</totfact>
</mgrwt>
</event>
<event>
 6      1 +2.5168323e+02 3.89338800e+02 7.54677100e-03 1.11471900e-01
       21 -1    0    0  503  502 +0.0000000000e+00 +0.0000000000e+00 +3.4914478764e+02 3.4914478764e+02 0.0000000000e+00 0.0000e+00 1.0000e+00
       21 -1    0    0  501  503 -0.0000000000e+00 -0.0000000000e+00 -1.5694078511e+03 1.5694078511e+03 0.0000000000e+00 0.0000e+00 1.0000e+00
        6  1    1    2  501    0 +3.8178776446e+02 +1.8401041551e+02 -1.5710535163e+02 4.8397605480e+02 1.7300000000e+02 0.0000e+00 1.0000e+00
       -6  1    1    2    0  504 -3.8071072625e+02 +5.6017303996e+00 -8.6529120905e+02 9.6105666478e+02 1.7300000000e+02 0.0000e+00 1.0000e+00
       21  1    1    2  504  505 +7.1677432185e+01 -4.7981735279e+01 -2.8097110407e+02 2.9391267841e+02 0.0000000000e+00 0.0000e+00 1.0000e+00
       21  1    1    2  505  502 -7.2754470398e+01 -1.4163041064e+02 +8.3104601291e+01 1.7960724077e+02 0.0000000000e+00 0.0000e+00 1.0000e+00
<mgrwt>
<rscale>  4 0.38933884E+03</rscale>
<asrwt>0</asrwt>
<pdfrwt beam="1">  1       21 0.53714582E-01 0.38933884E+03</pdfrwt>
<pdfrwt beam="2">  1       21 0.24144737E+00 0.38933884E+03</pdfrwt>
<totfact> 0.20289915E+02</totfact>
</mgrwt>
</event>
<event>
 6      1 +2.5168323e+02 1.79982200e+02 7.54677100e-03 1.12989000e-01
       21 -1    0    0  505  502 +0.0000000000e+00 +0.0000000000e+00 +1.1799965100e+03 1.1799965100e+03 0.0000000000e+00 0.0000e+00 1.0000e+00
       21 -1    0    0  501  503 -0.0000000000e+00 -0.0000000000e+00 -1.0606759198e+02 1.0606759198e+02 0.0000000000e+00 0.0000e+00 -1.0000e+00
        6  1    1    2  501    0 +2.7740546683e+01 -6.7774082572e+01 +3.4391927792e+02 3.9188306154e+02 1.7300000000e+02 0.0000e+00 -1.0000e+00
       -6  1    1    2    0  502 -5.6712033764e+01 -6.4023815741e+01 +6.9744381524e+02 7.2365197379e+02 1.7300000000e+02 0.0000e+00 1.0000e+00
       21  1    1    2  504  503 +6.2196228331e+01 +6.5346304714e+01 +3.3488021362e+01 9.6228675212e+01 0.0000000000e+00 0.0000e+00 -1.0000e+00
       21  1    1    2  505  504 -3.3224741251e+01 +6.6451593599e+01 -9.2219647994e-01 7.4300391448e+01 0.0000000000e+00 0.0000e+00 -1.0000e+00
<mgrwt>
<rscale>  4 0.17998216E+03</rscale>
<asrwt>0</asrwt>
<pdfrwt beam="1">  1       21 0.18153792E+00 0.17998216E+03</pdfrwt>
<pdfrwt beam="2">  1       21 0.16318092E-01 0.17998216E+03</pdfrwt>
<totfact> 0.60421550E+03</totfact>
</mgrwt>
</event>
<event>
 6      1 +2.5168323e+02 1.95980300e+02 7.54677100e-03 1.03924000e-01
       21 -1    0    0  504  502 +0.0000000000e+00 +0.0000000000e+00 +1.6557659478e+03 1.6557659478e+03 0.0000000000e+00 0.0000e+00 1.0000e+00
       21 -1    0    0  501  503 -0.0000000000e+00 -0.0000000000e+00 -6.3348884918e+01 6.3348884918e+01 0.0000000000e+00 0.0000e+00 1.0000e+00
        6  1    1    2  501    0 +1.0369568065e+02 +5.6814973663e+01 +2.1896962331e+02 3.0307990919e+02 1.7300000000e+02 0.0000e+00 1.0000e+00
       -6  1    1    2    0  505 -5.5560342524e+01 +7.0477432874e+01 +6.3133089373e+02 6.6072817223e+02 1.7300000000e+02 0.0000e+00 1.0000e+00
       21  1    1    2  504  503 -2.9825008351e+01 -1.1413050046e+02 +6.1756908225e+02 6.2873434263e+02 0.0000000000e+00 0.0000e+00 1.0000e+00
       21  1    1    2  505  502 -1.8310329778e+01 -1.3161906079e+01 +1.2454746357e+02 1.2657240865e+02 0.0000000000e+00 0.0000e+00 1.0000e+00
<mgrwt>
<rscale>  4 0.19598029E+03</rscale>
<asrwt>0</asrwt>
<pdfrwt beam="1">  1       21 0.25473319E+00 0.19598029E+03</pdfrwt>
<pdfrwt beam="2">  1       21 0.97459835E-02 0.19598029E+03</pdfrwt>
<totfact> 0.52782000E+03</totfact>
</mgrwt>
</event>
<event>
 6      1 +2.5168323e+02 1.97987900e+02 7.54677100e-03 9.87464100e-02
       21 -1    0    0  503  502 +0.0000000000e+00 +0.0000000000e+00 +1.0745348774e+02 1.0745348774e+02 0.0000000000e+00 0.0000e+00 1.0000e+00
       21 -1    0    0  505  503 -0.0000000000e+00 -0.0000000000e+00 -2.1296874753e+03 2.1296874753e+03 0.0000000000e+00 0.0000e+00 1.0000e+00
        6  1    1    2  501    0 -1.3824627755e+02 -8.6423367220e+01 -3.9692234730e+02 4.6266335650e+02 1.7300000000e+02 0.0000e+00 1.0000e+00
       -6  1    1    2    0  504 +8.1781946976e+01 -1.0293838802e+01 -6.9327777986e+01 2.0378810262e+02 1.7300000000e+02 0.0000e+00 -1.0000e+00
       21  1    1    2  504  502 +4.3999744329e+01 +7.4257375106e+01 -2.5051092725e+02 2.6496388420e+02 0.0000000000e+00 0.0000e+00 1.0000e+00
       21  1    1    2  505  501 +1.2464586249e+01 +2.2459830915e+01 -1.3054729350e+03 1.3057256197e+03 0.0000000000e+00 0.0000e+00 -1.0000e+00
<mgrwt>
<rscale>  4 0.19798787E+03</rscale>
<asrwt>0</asrwt>
<pdfrwt beam="1">  1       21 0.16531308E-01 0.19798787E+03</pdfrwt>
<pdfrwt beam="2">  1       21 0.32764419E+00 0.19798787E+03</pdfrwt>
<totfact> 0.77027367E+02</totfact>
</mgrwt>
</event>
<event>
 6      1 +2.5168323e+02 2.50188400e+02 7.54677100e-03 9.87464100e-02
       21 -1    0    0  503  502 +0.0000000000e+00 +0.0000000000e+00 +1.1600568131e+03 1.1600568131e+03 0.0000000000e+00 0.0000e+00 1.0000e+00
       21 -1    0    0  505  503 -0.0000000000e+00 -0.0000000000e+00 -1.5514561222e+03 1.5514561222e+03 0.0000000000e+00 0.0000e+00 -1.0000e+00
        6  1    1    2  501    0 -1.9940588032e+02 +1.7224940385e+01 +8.0686171905e+02 8.4912557219e+02 1.7300000000e+02 0.0000e+00 1.0000e+00
       -6  1    1    2    0  504 +1.0747807456e+02 -1.4944117912e+02 +2.6018486770e+02 3.6264220370e+02 1.7300000000e+02 0.0000e+00 -1.0000e+00
       21  1    1    2  504  502 +6.2979929451e+00 +3.4118998640e+01 +7.9653652279e-01 3.4704542264e+01 0.0000000000e+00 0.0000e+00 -1.0000e+00
       21  1    1    2  505  501 +8.5629812811e+01 +9.8097240090e+01 -1.4592424323e+03 1.4650406171e+03 0.0000000000e+00 0.0000e+00 -1.0000e+00
<mgrwt>
<rscale>  4 0.25018841E+03</rscale>
<asrwt>0</asrwt>
<pdfrwt beam="1">  1       21 0.17847028E+00 0.25018841E+03</pdfrwt>
<pdfrwt beam="2">  1       21 0.23868556E+00 0.25018841E+03</pdfrwt>
<totfact> 0.13157947E+01</totfact>
</mgrwt>
</event>
<event>
 6      1 +2.5168323e+02 2.24449700e+02 7.54677100e-03 1.11910500e-01
       21 -1    0    0  501  502 +0.0000000000e+00 +0.0000000000e+00 +4.8579722056e+02 4.8579722056e+02 0.0000000000e+00 0.0000e+00 -1.0000e+00
       21 -1    0    0  504  503 -0.0000000000e+00 -0.0000000000e+00 -5.1844385967e+02 5.1844385967e+02 0.0000000000e+00 0.0000e+00 -1.0000e+00
        6  1    1    2  501    0 +5.2952908138e+01 +1.2852186691e+02 +2.6267162271e+02 3.4387099635e+02 1.7300000000e+02 0.0000e+00 -1.0000e+00
       -6  1    1    2    0  503 +8.2913848600e+00 -1.6056485942e+02 +9.3411093604e+01 2.5397726975e+02 1.7300000000e+02 0.0000e+00 1.0000e+00
       21  1    1    2  504  505 -1.9838166028e+01 +1.8571576415e+01 -3.3983855149e+02 3.4092330129e+02 0.0000000000e+00 0.0000e+00 -1.0000e+00
       21  1    1    2  505  502 -4.1406126970e+01 +1.3471416101e+01 -4.8890803929e+01 6.5469512838e+01 0.0000000000e+00 0.0000e+00 1.0000e+00
<mgrwt>
<rscale>  4 0.22444970E+03</rscale>
<asrwt>0</asrwt>
<pdfrwt beam="1">  1       21 0.74738034E-01 0.22444970E+03</pdfrwt>
<pdfrwt beam="2">  1       21 0.79760593E-01 0.22444970E+03</pdfrwt>
<totfact> 0.21595930E+03</totfact>
</mgrwt>
</event>
<event>
 6      1 +2.5168323e+02 2.07298700e+02 7.54677100e-03 1.07240600e-01
       21 -1    0    0  505  502 +0.0000000000e+00 +0.0000000000e+00 +5.9305200009e+02 5.9305200009e+02 0.0000000000e+00 0.0000e+00 -1.0000e+00
       21 -1    0    0  504  503 -0.0000000000e+00 -0.0000000000e+00 -2.2310826692e+02 2.2310826692e+02 0.0000000000e+00 0.0000e+00 -1.0000e+00
        6  1    1    2  501    0 -1.9360587132e+01 -9.6894105203e+01 +3.3769378813e+02 3.9208340248e+02 1.7300000000e+02 0.0000e+00 -1.0000e+00
       -6  1    1    2    0  502 +2.5531535940e+01 +1.5158854217e+02 +1.2240383434e+02 2.6180650126e+02 1.7300000000e+02 0.0000e+00 -1.0000e+00
       21  1    1    2  504  501 +9.6910577088e+00 +3.2989566806e+01 +1.5316114654e+00 3.4417640117e+01 0.0000000000e+00 0.0000e+00 1.0000e+00
       21  1    1    2  505  503 -1.5862006517e+01 -8.7684003767e+01 -9.1685500760e+01 1.2785272315e+02 0.0000000000e+00 0.0000e+00 -1.0000e+00
<mgrwt>
<rscale>  4 0.20729869E+03</rscale>
<asrwt>0</asrwt>
<pdfrwt beam="1">  1       21 0.91238769E-01 0.20729869E+03</pdfrwt>
<pdfrwt beam="2">  1       21 0.34324349E-01 0.20729869E+03</pdfrwt>
<totfact> 0.82381030E+03</totfact>
</mgrwt>
</event>
<event>
 6      1 +2.5168323e+02 2.97964200e+02 7.54677100e-03 1.16820100e-01
       21 -1    0    0  505  502 +0.0000000000e+00 +0.0000000000e+00 +1.2533242103e+02 1.2533242103e+02 0.0000000000e+00 0.0000e+00 -1.0000e+00
       21 -1    0    0  504  503 -0.0000000000e+00 -0.0000000000e+00 -2.2787785915e+03 2.2787785915e+03 0.0000000000e+00 0.0000e+00 1.0000e+00
        6  1    1    2  501    0 +4.8526006599e+01 -2.3743717792e+02 -1.2199827118e+03 1.2557937744e+03 1.7300000000e+02 0.0000e+00 -1.0000e+00
       -6  1    1    2    0  503 -1.5705386193e+02 +2.0816042589e+02 -8.1823231089e+02 8.7603070325e+02 1.7300000000e+02 0.0000e+00 1.0000e+00
       21  1    1    2  504  502 +2.8302079647e+01 +1.6674173246e+01 -1.7077073075e+02 1.7390134630e+02 0.0000000000e+00 0.0000e+00 1.0000e+00
       21  1    1    2  505  501 +8.0225775682e+01 +1.2602578777e+01 +5.5539582890e+01 9.8385188638e+01 0.0000000000e+00 0.0000e+00 -1.0000e+00
<mgrwt>
<rscale>  4 0.29796419E+03</rscale>
<asrwt>0</asrwt>
<pdfrwt beam="1">  1       21 0.19281910E-01 0.29796419E+03</pdfrwt>
<pdfrwt beam="2">  1       21 0.35058133E+00 0.29796419E+03</pdfrwt>
<totfact> 0.37600928E+02</totfact>
</mgrwt>
</event>
<event>
 6      1 +2.5168323e+02 2.73784500e+02 7.54677100e-03 1.16820100e-01
       21 -1    0    0  501  502 +0.0000000000e+00 +0.0000000000e+00 +1.1469937525e+03 1.1469937525e+03 0.0000000000e+00 0.0000e+00 -1.0000e+00
       21 -1    0    0  504  503 -0.0000000000e+00 -0.0000000000e+00 -2.1068929331e+02 2.1068929331e+02 0.0000000000e+00 0.0000e+00 -1.0000e+00
        6  1    1    2  501    0 +1.3981186468e+02 -1.7971447664e+02 +6.7944334320e+02 7.3716816754e+02 1.7300000000e+02 0.0000e+00 -1.0000e+00
       -6  1    1    2    0  503 -1.2095538702e+02 +1.6743312783e+02 +2.1958177636e+02 3.4757619949e+02 1.7300000000e+02 0.0000e+00 -1.0000e+00
       21  1    1    2  504  505 -2.0200409414e+01 -1.6911916232e+01 -1.1494959013e+02 1.1792996957e+02 0.0000000000e+00 0.0000e+00 -1.0000e+00
       21  1    1    2  505  502 +1.3439317511e+00 +2.9193265041e+01 +1.5222892978e+02 1.5500870924e+02 0.0000000000e+00 0.0000e+00 -1.0000e+00
<mgrwt>
<rscale>  4 0.27378445E+03</rscale>
<asrwt>0</asrwt>
<pdfrwt beam="1">  1       21 0.17646057E+00 0.27378445E+03</pdfrwt>
<pdfrwt beam="2">  1       21 0.32413738E-01 0.27378445E+03</pdfrwt>
<totfact> 0.16424655E+03</totfact>
</mgrwt>
</event>
<event>
 6      1 +2.5168323e+02 1.91936700e+02 7.54677100e-03 1.17132900e-01
       21 -1    0    0  505  502 +0.0000000000e+00 +0.0000000000e+00 +5.5756157828e+02 5.5756157828e+02 0.0000000000e+00 0.0000e+00 -1.0000e+00
       21 -1    0    0  504  503 -0.0000000000e+00 -0.0000000000e+00 -5.2016806077e+02 5.2016806077e+02 0.0000000000e+00 0.0000e+00 -1.0000e+00
        6  1    1    2  501    0 +2.1871006453e+01 -5.3196471186e+01 -2.2433850338e+02 2.8907606191e+02 1.7300000000e+02 0.0000e+00 -1.0000e+00
       -6  1    1    2    0  502 -1.3099327747e+02 +5.9566620198e+01 -1.7029009189e+02 2.8219698152e+02 1.7300000000e+02 0.0000e+00 -1.0000e+00
       21  1    1    2  504  501 +5.7481493531e+01 -1.4638261336e+01 -1.1026210742e+01 6.0332231161e+01 0.0000000000e+00 0.0000e+00 -1.0000e+00
       21  1    1    2  505  503 +5.1640777485e+01 +8.2681123244e+00 +4.4304832353e+02 4.4612436445e+02 0.0000000000e+00 0.0000e+00 -1.0000e+00
<mgrwt>
<rscale>  4 0.19193668E+03</rscale>
<asrwt>0</asrwt>
<pdfrwt beam="1">  1       21 0.85778704E-01 0.19193668E+03</pdfrwt>
<pdfrwt beam="2">  1       21 0.80025856E-01 0.19193668E+03</pdfrwt>
<totfact> 0.16139607E+03</totfact>
</mgrwt>
</event>
<event>
 6      1 +2.5168323e+02 2.13951700e+02 7.54677100e-03 1.12068800e-01
       21 -1    0    0  504  502 +0.0000000000e+00 +0.0000000000e+00 +9.3624076631e+01 9.3624076631e+01 0.0000000000e+00 0.0000e+00 -1.0000e+00
       21 -1    0    0  502  503 -0.0000000000e+00 -0.0000000000e+00 -1.9793095537e+03 1.9793095537e+03 0.0000000000e+00 0.0000e+00 1.0000e+00
        6  1    1    2  501    0 -5.0279689683e+01 +1.1303517917e+02 -1.2922323007e+03 1.3096176228e+03 1.7300000000e+02 0.0000e+00 1.0000e+00
       -6  1    1    2    0  505 +4.1986933024e+01 -1.1895474550e+02 -5.2965048390e+01 2.2056162489e+02 1.7300000000e+02 0.0000e+00 -1.0000e+00
       21  1    1    2  504  501 -1.0320821123e+01 +2.2280608624e+01 -2.9397049566e+02 2.9499423247e+02 0.0000000000e+00 0.0000e+00 1.0000e+00
       21  1    1    2  505  503 +1.8613577782e+01 -1.6361042296e+01 -2.4651763230e+02 2.4776015018e+02 0.0000000000e+00 0.0000e+00 1.0000e+00
<mgrwt>
<rscale>  4 0.21395174E+03</rscale>
<asrwt>0</asrwt>
<pdfrwt beam="1">  1       21 0.14403705E-01 0.21395174E+03</pdfrwt>
<pdfrwt beam="2">  1       21 0.30450914E+00 0.21395174E+03</pdfrwt>
<totfact> 0.13217449E+03</totfact>
</mgrwt>
</event>
<event>
 6      1 +2.5168323e+02 1.82295400e+02 7.54677100e-03 1.17132900e-01
       21 -1    0    0  505  502 +0.0000000000e+00 +0.0000000000e+00 +1.8727933181e+02 1.8727933181e+02 0.0000000000e+00 0.0000e+00 1.0000e+00
       21 -1    0    0  504  503 -0.0000000000e+00 -0.0000000000e+00 -7.6790193749e+02 7.6790193749e+02 0.0000000000e+00 0.0000e+00 -1.0000e+00
        6  1    1    2  501    0 +2.9152379775e+01 -2.2075791238e+01 -1.2501684784e+02 2.1655349004e+02 1.7300000000e+02 0.0000e+00 -1.0000e+00
       -6  1    1    2    0  502 -7.3791012932e+01 +3.1394724711e+01 -2.5685220725e+01 1.9240445133e+02 1.7300000000e+02 0.0000e+00 1.0000e+00
       21  1    1    2  504  501 +1.8887568270e+01 -1.0231383221e+01 -4.8496806720e+02 4.8544355763e+02 0.0000000000e+00 0.0000e+00 -1.0000e+00
       21  1    1    2  505  503 +2.5751064888e+01 +9.1244974740e-01 +5.5047530095e+01 6.0779770294e+01 0.0000000000e+00 0.0000e+00 1.0000e+00
<mgrwt>
<rscale>  4 0.18229540E+03</rscale>
<asrwt>0</asrwt>
<pdfrwt beam="1">  1       21 0.28812206E-01 0.18229540E+03</pdfrwt>
<pdfrwt beam="2">  1       21 0.11813876E+00 0.18229540E+03</pdfrwt>
<totfact> 0.63790183E+03</totfact>
</mgrwt>
</event>
<event>
 6      1 +2.5168323e+02 1.76448700e+02 7.54677100e-03 1.16820100e-01
       21 -1    0    0  505  502 +0.0000000000e+00 +0.0000000000e+00 +4.3368512060e+02 4.3368512060e+02 0.0000000000e+00 0.0000e+00 -1.0000e+00
       21 -1    0    0  501  503 -0.0000000000e+00 -0.0000000000e+00 -3.4169044893e+02 3.4169044893e+02 0.0000000000e+00 0.0000e+00 -1.0000e+00
        6  1    1    2  501    0 -2.5765270757e+01 -5.9583162116e+01 -1.9068931049e+02 2.6552855877e+02 1.7300000000e+02 0.0000e+00 -1.0000e+00
       -6  1    1    2    0  502 +1.4715548122e+01 -1.7480955205e+01 +1.7391860090e+02 2.4637128666e+02 1.7300000000e+02 0.0000e+00 -1.0000e+00
       21  1    1    2  504  503 +1.2237440893e+01 +2.4066846659e+01 -7.1051145903e+01 7.6008114053e+01 0.0000000000e+00 0.0000e+00 -1.0000e+00
       21  1    1    2  505  504 -1.1877182582e+00 +5.2997270662e+01 +1.7981652717e+02 1.8746761004e+02 0.0000000000e+00 0.0000e+00 -1.0000e+00
<mgrwt>
<rscale>  4 0.17644871E+03</rscale>
<asrwt>0</asrwt>
<pdfrwt beam="1">  1       21 0.66720788E-01 0.17644871E+03</pdfrwt>
<pdfrwt beam="2">  1       21 0.52567761E-01 0.17644871E+03</pdfrwt>
<totfact> 0.71501805E+03</totfact>
</mgrwt>
</event>
<event>
 6      1 +2.5168323e+02 2.88485900e+02 7.54677100e-03 1.07064900e-01
       21 -1    0    0  505  502 +0.0000000000e+00 +0.0000000000e+00 +8.5448397259e+02 8.5448397259e+02 0.0000000000e+00 0.0000e+00 -1.0000e+00
       21 -1    0    0  504  503 -0.0000000000e+00 -0.0000000000e+00 -2.0843207342e+03 2.0843207342e+03 0.0000000000e+00 0.0000e+00 1.0000e+00
        6  1    1    2  501    0 +1.0323487406e+02 +1.9102800647e+02 -3.2424167312e+02 4.2686157131e+02 1.7300000000e+02 0.0000e+00 -1.0000e+00
       -6  1    1    2    0  503 +4.3222985635e+01 +6.3146807168e+00 -1.6604878371e+03 1.6700469930e+03 1.7300000000e+02 0.0000e+00 1.0000e+00
       21  1    1    2  504  502 -1.4736680486e+02 +8.9168834679e+00 +4.5153806751e+02 4.7506116700e+02 0.0000000000e+00 0.0000e+00 -1.0000e+00
       21  1    1    2  505  501 +9.0894515868e-01 -2.0625957065e+02 +3.0335468111e+02 3.6683497546e+02 0.0000000000e+00 0.0000e+00 -1.0000e+00
<mgrwt>
<rscale>  4 0.25568306E+03</rscale>
<asrwt>0</asrwt>
<pdfrwt beam="1">  1       21 0.13145907E+00 0.28848586E+03</pdfrwt>
<pdfrwt beam="2">  1       21 0.32066472E+00 0.28848586E+03</pdfrwt>
<totfact> 0.93225440E+00</totfact>
</mgrwt>
</event>
<event>
 6      1 +2.5168323e+02 2.24847100e+02 7.54677100e-03 1.11671100e-01
       21 -1    0    0  503  502 +0.0000000000e+00 +0.0000000000e+00 +2.6833550439e+03 2.6833550439e+03 0.0000000000e+00 0.0000e+00 -1.0000e+00
       21 -1    0    0  501  503 -0.0000000000e+00 -0.0000000000e+00 -7.3946725558e+01 7.3946725558e+01 0.0000000000e+00 0.0000e+00 -1.0000e+00
        6  1    1    2  501    0 +9.8938328135e+01 +2.7256469732e+01 +6.2084453811e+02 6.5261676994e+02 1.7300000000e+02 0.0000e+00 -1.0000e+00
       -6  1    1    2    0  504 -1.5479854424e+02 -3.6856147092e+01 +1.8305513979e+02 2.9792473728e+02 1.7300000000e+02 0.0000e+00 -1.0000e+00
       21  1    1    2  504  505 +1.5688424733e+01 -1.3669349142e+01 +5.7122796149e+02 5.7160682446e+02 0.0000000000e+00 0.0000e+00 -1.0000e+00
       21  1    1    2  505  502 +4.0171791376e+01 +2.3269026503e+01 +1.2342806789e+03 1.2351534377e+03 0.0000000000e+00 0.0000e+00 -1.0000e+00
<mgrwt>
<rscale>  4 0.22484712E+03</rscale>
<asrwt>0</asrwt>
<pdfrwt beam="1">  1       21 0.41282378E+00 0.22484712E+03</pdfrwt>
<pdfrwt beam="2">  1       21 0.11376421E-01 0.22484712E+03</pdfrwt>
<totfact> 0.44471031E+02</totfact>
</mgrwt>
</event>
<event>
 6      1 +2.5168323e+02 1.76290200e+02 7.54677100e-03 1.16584500e-01
       21 -1    0    0  504  502 +0.0000000000e+00 +0.0000000000e+00 +1.1721039564e+02 1.1721039564e+02 0.0000000000e+00 0.0000e+00 1.0000e+00
       21 -1    0    0  501  503 -0.0000000000e+00 -0.0000000000e+00 -6.0425632400e+02 6.0425632400e+02 0.0000000000e+00 0.0000e+00 1.0000e+00
        6  1    1    2  501    0 -6.6480753893e+01 -1.7839690879e+01 -3.1570683895e+02 3.6652114996e+02 1.7300000000e+02 0.0000e+00 1.0000e+00
       -6  1    1    2    0  505 -3.1182569661e+01 +2.1257782443e+01 -1.6205824432e+02 2.4003358206e+02 1.7300000000e+02 0.0000e+00 -1.0000e+00
       21  1    1    2  504  503 +7.2056994836e+01 -1.4354661637e+01 -3.0854137319e+01 7.9688422027e+01 0.0000000000e+00 0.0000e+00 1.0000e+00
       21  1    1    2  505  502 +2.5606328718e+01 +1.0936570072e+01 +2.1573292229e+01 3.5223565592e+01 0.0000000000e+00 0.0000e+00 1.0000e+00
<mgrwt>
<rscale>  4 0.17629024E+03</rscale>
<asrwt>0</asrwt>
<pdfrwt beam="1">  1       21 0.18032369E-01 0.17629024E+03</pdfrwt>
<pdfrwt beam="2">  1       21 0.92962510E-01 0.17629024E+03</pdfrwt>
<totfact> 0.27526272E+04</totfact>
</mgrwt>
</event>
<event>
 6      1 +2.5168323e+02 2.71391100e+02 7.54677100e-03 1.16820100e-01
       21 -1    0    0  504  502 +0.0000000000e+00 +0.0000000000e+00 +1.0660135879e+03 1.0660135879e+03 0.0000000000e+00 0.0000e+00 1.0000e+00
       21 -1    0    0  501  503 -0.0000000000e+00 -0.0000000000e+00 -1.6006951712e+02 1.6006951712e+02 0.0000000000e+00 0.0000e+00 1.0000e+00
        6  1    1    2  501    0 -2.8603688144e+01 -2.1065335930e+02 +3.3157059086e+02 4.3018724467e+02 1.7300000000e+02 0.0000e+00 1.0000e+00
       -6  1    1    2    0  505 +3.5016049232e+01 +1.9501357535e+02 +4.8807046720e+02 5.5443502706e+02 1.7300000000e+02 0.0000e+00 1.0000e+00
       21  1    1    2  504  503 -2.9799740573e-01 -2.2087379831e+01 -7.3708972615e+01 7.6947734172e+01 0.0000000000e+00 0.0000e+00 1.0000e+00
       21  1    1    2  505  502 -6.1143636820e+00 +3.7727163784e+01 +1.6001198531e+02 1.6451309909e+02 0.0000000000e+00 0.0000e+00 1.0000e+00
<mgrwt>
<rscale>  4 0.27139111E+03</rscale>
<asrwt>0</asrwt>
<pdfrwt beam="1">  1       21 0.16400209E+00 0.27139111E+03</pdfrwt>
<pdfrwt beam="2">  1       21 0.24626080E-01 0.27139111E+03</pdfrwt>
<totfact> 0.34516035E+03</totfact>
</mgrwt>
</event>
<event>
 6      1 +2.5168323e+02 2.56972600e+02 7.54677100e-03 1.16820100e-01
       21 -1    0    0  501  502 +0.0000000000e+00 +0.0000000000e+00 +7.4610281952e+02 7.4610281952e+02 0.0000000000e+00 0.0000e+00 1.0000e+00
       21 -1    0    0  504  503 -0.0000000000e+00 -0.0000000000e+00 -1.7322963389e+02 1.7322963389e+02 0.0000000000e+00 0.0000e+00 -1.0000e+00
        6  1    1    2  501    0 -2.0133574285e+02 +5.9301953704e+01 +3.9492844514e+02 4.7953131269e+02 1.7300000000e+02 0.0000e+00 1.0000e+00
       -6  1    1    2    0  503 +1.6913971326e+02 -5.0952683939e+00 +2.3359544707e+02 3.3634808942e+02 1.7300000000e+02 0.0000e+00 -1.0000e+00
       21  1    1    2  504  505 +2.1573466333e+01 -3.3429787041e+01 -6.6676160072e+01 7.7644545418e+01 0.0000000000e+00 0.0000e+00 -1.0000e+00
       21  1    1    2  505  502 +1.0622563256e+01 -2.0776898270e+01 +1.1025453488e+01 2.5808505894e+01 0.0000000000e+00 0.0000e+00 1.0000e+00
<mgrwt>
<rscale>  4 0.25697260E+03</rscale>
<asrwt>0</asrwt>
<pdfrwt beam="1">  1       21 0.11478505E+00 0.25697260E+03</pdfrwt>
<pdfrwt beam="2">  1       21 0.26650713E-01 0.25697260E+03</pdfrwt>
<totfact> 0.75603105E+03</totfact>
</mgrwt>
</event>
<event>
 6      1 +2.5168323e+02 2.40877000e+02 7.54677100e-03 1.17132900e-01
       21 -1    0    0  505  502 +0.0000000000e+00 +0.0000000000e+00 +9.6063947729e+02 9.6063947729e+02 0.0000000000e+00 0.0000e+00 1.0000e+00
       21 -1    0    0  504  503 -0.0000000000e+00 -0.0000000000e+00 -2.0139304860e+02 2.0139304860e+02 0.0000000000e+00 0.0000e+00 -1.0000e+00
        6  1    1    2  501    0 +8.3417077018e+01 -1.0135016206e+02 +2.4802441377e+02 3.2965948176e+02 1.7300000000e+02 0.0000e+00 1.0000e+00
       -6  1    1    2    0  502 -2.2166435907e+02 +5.4365264334e+01 +3.4110401359e+02 4.4538928831e+02 1.7300000000e+02 0.0000e+00 1.0000e+00
       21  1    1    2  504  501 +7.4179227534e+01 -1.3908364928e+01 -8.6954898209e+01 1.1513971832e+02 0.0000000000e+00 0.0000e+00 -1.0000e+00
       21  1    1    2  505  503 +6.4068054521e+01 +6.0893262653e+01 +2.5707289953e+02 2.7184403749e+02 0.0000000000e+00 0.0000e+00 1.0000e+00
<mgrwt>
<rscale>  4 0.24087704E+03</rscale>
<asrwt>0</asrwt>
<pdfrwt beam="1">  1       21 0.14779069E+00 0.24087704E+03</pdfrwt>
<pdfrwt beam="2">  1       21 0.30983547E-01 0.24087704E+03</pdfrwt>
<totfact> 0.29879116E+03</totfact>
</mgrwt>
</event>
<event>
 6      1 +2.5168323e+02 2.64012800e+02 7.54677100e-03 1.15942100e-01
       21 -1    0    0  504  502 +0.0000000000e+00 +0.0000000000e+00 +3.3896372101e+02 3.3896372101e+02 0.0000000000e+00 0.0000e+00 -1.0000e+00
       21 -1    0    0  501  503 -0.0000000000e+00 -0.0000000000e+00 -4.6942402163e+02 4.6942402163e+02 0.0000000000e+00 0.0000e+00 1.0000e+00
        6  1    1    2  501    0 -1.2670328230e+02 -1.4658013648e+02 -5.1746786987e+01 2.6485125659e+02 1.7300000000e+02 0.0000e+00 1.0000e+00
       -6  1    1    2    0  502 +1.6954719330e+02 +1.1475048919e+02 +1.3524795428e+02 3.0022480688e+02 1.7300000000e+02 0.0000e+00 -1.0000e+00
       21  1    1    2  504  505 -7.6095126131e+00 +6.4165504905e+01 -1.5102408336e+02 1.6426621825e+02 0.0000000000e+00 0.0000e+00 1.0000e+00
       21  1    1    2  505  503 -3.5234398394e+01 -3.2335857616e+01 -6.2937384557e+01 7.9045460925e+01 0.0000000000e+00 0.0000e+00 1.0000e+00
<mgrwt>
<rscale>  4 0.26401277E+03</rscale>
<asrwt>0</asrwt>
<pdfrwt beam="1">  1       21 0.52148265E-01 0.26401277E+03</pdfrwt>
<pdfrwt beam="2">  1       21 0.72219080E-01 0.26401277E+03</pdfrwt>
<totfact> 0.57543806E+03</totfact>
</mgrwt>
</event>
<event>
 6      1 +2.5168323e+02 2.10212200e+02 7.54677100e-03 1.03924000e-01
       21 -1    0    0  504  502 +0.0000000000e+00 +0.0000000000e+00 +2.9069454775e+02 2.9069454775e+02 0.0000000000e+00 0.0000e+00 -1.0000e+00
       21 -1    0    0  501  503 -0.0000000000e+00 -0.0000000000e+00 -5.1284081819e+02 5.1284081819e+02 0.0000000000e+00 0.0000e+00 1.0000e+00
        6  1    1    2  501    0 -1.0419780779e+02 +8.1882848951e+01 -1.8421413667e+02 2.8535211976e+02 1.7300000000e+02 0.0000e+00 1.0000e+00
       -6  1    1    2    0  505 +9.8603588953e+01 -4.9886746798e+01 -2.3637521419e+02 3.1307123334e+02 1.7300000000e+02 0.0000e+00 -1.0000e+00
       21  1    1    2  504  503 -1.2217423552e+01 -1.6689091791e+01 +4.0944189243e+01 4.5871754445e+01 0.0000000000e+00 0.0000e+00 1.0000e+00
       21  1    1    2  505  502 +1.7811642387e+01 -1.5307010362e+01 +1.5749889119e+02 1.5924025840e+02 0.0000000000e+00 0.0000e+00 1.0000e+00
<mgrwt>
<rscale>  4 0.21021225E+03</rscale>
<asrwt>0</asrwt>
<pdfrwt beam="1">  1       21 0.44722239E-01 0.21021225E+03</pdfrwt>
<pdfrwt beam="2">  1       21 0.78898586E-01 0.21021225E+03</pdfrwt>
<totfact> 0.67233875E+03</totfact>
</mgrwt>
</event>
<event>
 6      1 +2.5168323e+02 1.82012500e+02 7.54677100e-03 1.16820100e-01
       21 -1    0    0  504  502 +0.0000000000e+00 +0.0000000000e+00 +2.9130703297e+02 2.9130703297e+02 0.0000000000e+00 0.0000e+00 1.0000e+00
       21 -1    0    0  501  503 -0.0000000000e+00 -0.0000000000e+00 -7.0251642293e+02 7.0251642293e+02 0.0000000000e+00 0.0000e+00 1.0000e+00
        6  1    1    2  501    0 -1.7491967746e+01 +8.8080430997e+01 -4.1751924305e+02 4.6077700635e+02 1.7300000000e+02 0.0000e+00 1.0000e+00
       -6  1    1    2    0  505 -9.5214021265e+00 -1.0710812688e+01 -1.7838395115e+02 2.4890804052e+02 1.7300000000e+02 0.0000e+00 -1.0000e+00
       21  1    1    2  504  503 +2.2705617824e+01 -5.2365953640e+00 -4.0999813257e+01 4.7158792381e+01 0.0000000000e+00 0.0000e+00 1.0000e+00
       21  1    1    2  505  502 +4.3077520489e+00 -7.2133022946e+01 +2.2569361750e+02 2.3697961665e+02 0.0000000000e+00 0.0000e+00 1.0000e+00
<mgrwt>
<rscale>  4 0.18201250E+03</rscale>
<asrwt>0</asrwt>
<pdfrwt beam="1">  1       21 0.44816467E-01 0.18201250E+03</pdfrwt>
<pdfrwt beam="2">  1       21 0.10807945E+00 0.18201250E+03</pdfrwt>
<totfact> 0.32867904E+03</totfact>
</mgrwt>
</event>
<event>
 6      1 +2.5168323e+02 1.89873600e+02 7.54677100e-03 1.16820100e-01
       21 -1    0    0  505  502 +0.0000000000e+00 +0.0000000000e+00 +4.5515906347e+02 4.5515906347e+02 0.0000000000e+00 0.0000e+00 1.0000e+00
       21 -1    0    0  501  503 -0.0000000000e+00 -0.0000000000e+00 -4.4483709813e+02 4.4483709813e+02 0.0000000000e+00 0.0000e+00 1.0000e+00
        6  1    1    2  501    0 -1.7793505807e+01 +7.0739961681e+01 -1.4844937028e+02 2.3934695854e+02 1.7300000000e+02 0.0000e+00 1.0000e+00
       -6  1    1    2    0  502 +5.2537625398e+01 -4.5936277263e+01 +5.2113250746e+01 1.9368824062e+02 1.7300000000e+02 0.0000e+00 -1.0000e+00
       21  1    1    2  504  503 +2.4444608383e+01 +2.9959645617e+01 -1.7229823654e+02 1.7658369562e+02 0.0000000000e+00 0.0000e+00 1.0000e+00
       21  1    1    2  505  504 -5.9188727974e+01 -5.4763330035e+01 +2.7895632141e+02 2.9037726682e+02 0.0000000000e+00 0.0000e+00 1.0000e+00
<mgrwt>
<rscale>  4 0.18987362E+03</rscale>
<asrwt>0</asrwt>
<pdfrwt beam="1">  1       21 0.70024471E-01 0.18987362E+03</pdfrwt>
<pdfrwt beam="2">  1       21 0.68436477E-01 0.18987362E+03</pdfrwt>
<totfact> 0.36138570E+03</totfact>
</mgrwt>
</event>
<event>
 6      1 +2.5168323e+02 2.34988900e+02 7.54677100e-03 1.05831300e-01
       21 -1    0    0  504  502 +0.0000000000e+00 +0.0000000000e+00 +3.1777221115e+02 3.1777221115e+02 0.0000000000e+00 0.0000e+00 1.0000e+00
       21 -1    0    0  501  503 -0.0000000000e+00 -0.0000000000e+00 -1.3463495728e+03 1.3463495728e+03 0.0000000000e+00 0.0000e+00 -1.0000e+00
        6  1    1    2  501    0 +1.4609908808e+01 +1.3144642648e+02 -1.3951540347e+02 2.5862165469e+02 1.7300000000e+02 0.0000e+00 1.0000e+00
       -6  1    1    2    0  505 +4.8761118754e+01 -1.4148225803e+02 -1.0891120789e+03 1.1128742051e+03 1.7300000000e+02 0.0000e+00 -1.0000e+00
       21  1    1    2  504  503 +5.5480745084e-02 -2.5447426709e+01 -3.6875602852e+01 4.4803846820e+01 0.0000000000e+00 0.0000e+00 1.0000e+00
       21  1    1    2  505  502 -6.3426508307e+01 +3.5483258261e+01 +2.3692572351e+02 2.4782207737e+02 0.0000000000e+00 0.0000e+00 1.0000e+00
<mgrwt>
<rscale>  4 0.23498885E+03</rscale>
<asrwt>0</asrwt>
<pdfrwt beam="1">  1       21 0.48888033E-01 0.23498885E+03</pdfrwt>
<pdfrwt beam="2">  1       21 0.20713070E+00 0.23498885E+03</pdfrwt>
<totfact> 0.46020653E+02</totfact>
</mgrwt>
</event>
<event>
 6      1 +2.5168323e+02 1.98961600e+02 7.54677100e-03 1.16820100e-01
       21 -1    0    0  504  502 +0.0000000000e+00 +0.0000000000e+00 +4.3345570154e+02 4.3345570154e+02 0.0000000000e+00 0.0000e+00 -1.0000e+00
       21 -1    0    0  505  503 -0.0000000000e+00 -0.0000000000e+00 -4.7333005555e+02 4.7333005555e+02 0.0000000000e+00 0.0000e+00 1.0000e+00
        6  1    1    2  501    0 +3.4768422451e+01 -4.1194102504e+01 -1.5453710568e+02 2.3815229227e+02 1.7300000000e+02 0.0000e+00 1.0000e+00
       -6  1    1    2    0  503 -1.3796661549e+02 +7.2006748269e+01 -1.8679026086e+02 2.9839463859e+02 1.7300000000e+02 0.0000e+00 1.0000e+00
       21  1    1    2  504  501 +2.6973808209e+01 +1.5377537492e+01 -1.9817441182e+01 3.6834575654e+01 0.0000000000e+00 0.0000e+00 1.0000e+00
       21  1    1    2  505  502 +7.6224384832e+01 -4.6190183257e+01 +3.2127045371e+02 3.3340425058e+02 0.0000000000e+00 0.0000e+00 -1.0000e+00
<mgrwt>
<rscale>  4 0.19896156E+03</rscale>
<asrwt>0</asrwt>
<pdfrwt beam="1">  1       21 0.66685492E-01 0.19896156E+03</pdfrwt>
<pdfrwt beam="2">  1       21 0.72820009E-01 0.19896156E+03</pdfrwt>
<totfact> 0.34812516E+03</totfact>
</mgrwt>
</event>
<event>
 6      1 +2.5168323e+02 1.73533200e+02 7.54677100e-03 9.87464100e-02
       21 -1    0    0  503  502 +0.0000000000e+00 +0.0000000000e+00 +6.6582195708e+02 6.6582195708e+02 0.0000000000e+00 0.0000e+00 1.0000e+00
       21 -1    0    0  505  503 -0.0000000000e+00 -0.0000000000e+00 -9.9453570341e+02 9.9453570341e+02 0.0000000000e+00 0.0000e+00 -1.0000e+00
        6  1    1    2  501    0 +3.9686649195e+01 +2.1718048759e+01 +9.9526006831e+01 2.0464879624e+02 1.7300000000e+02 0.0000e+00 -1.0000e+00
       -6  1    1    2    0  504 -1.4255473869e+01 +3.3483292264e+01 +4.0908671605e+02 4.4565153499e+02 1.7300000000e+02 0.0000e+00 1.0000e+00
       21  1    1    2  504  502 +3.2561681902e+01 -1.3423351047e+01 +8.1327939701e+01 8.8626650945e+01 0.0000000000e+00 0.0000e+00 -1.0000e+00
       21  1    1    2  505  501 -5.7992857228e+01 -4.1777989975e+01 -9.1865440891e+02 9.2143067831e+02 0.0000000000e+00 0.0000e+00 -1.0000e+00
<mgrwt>
<rscale>  4 0.17353317E+03</rscale>
<asrwt>0</asrwt>
<pdfrwt beam="1">  1       21 0.10243415E+00 0.17353317E+03</pdfrwt>
<pdfrwt beam="2">  1       21 0.15300549E+00 0.17353317E+03</pdfrwt>
<totfact> 0.22556205E+02</totfact>
</mgrwt>
</event>
<event>
 6      1 +2.5168323e+02 1.84058100e+02 7.54677100e-03 1.17132900e-01
       21 -1    0    0  503  502 +0.0000000000e+00 +0.0000000000e+00 +2.6800117905e+02 2.6800117905e+02 0.0000000000e+00 0.0000e+00 -1.0000e+00
       21 -1    0    0  504  503 -0.0000000000e+00 -0.0000000000e+00 -3.2230321172e+02 3.2230321172e+02 0.0000000000e+00 0.0000e+00 -1.0000e+00
        6  1    1    2  501    0 -3.0304420781e+01 +5.1250524001e+01 -1.3520167741e+02 2.2749388498e+02 1.7300000000e+02 0.0000e+00 -1.0000e+00
       -6  1    1    2    0  505 +8.2094458732e+01 -6.8038788730e+01 +7.0334951620e+01 2.1504600053e+02 1.7300000000e+02 0.0000e+00 -1.0000e+00
       21  1    1    2  504  501 -4.3604002783e+00 -2.5235892545e+01 -5.2468201082e+01 5.8384719644e+01 0.0000000000e+00 0.0000e+00 1.0000e+00
       21  1    1    2  505  502 -4.7429637673e+01 +4.2024157275e+01 +6.3032894199e+01 8.9379785609e+01 0.0000000000e+00 0.0000e+00 -1.0000e+00
<mgrwt>
<rscale>  4 0.18405811E+03</rscale>
<asrwt>0</asrwt>
<pdfrwt beam="1">  1       21 0.41230951E-01 0.18405811E+03</pdfrwt>
<pdfrwt beam="2">  1       21 0.49585109E-01 0.18405811E+03</pdfrwt>
<totfact> 0.22073514E+04</totfact>
</mgrwt>
</event>
<event>
 6      1 +2.5168323e+02 2.12145500e+02 7.54677100e-03 1.16820100e-01
       21 -1    0    0  505  502 +0.0000000000e+00 +0.0000000000e+00 +7.6911182162e+02 7.6911182162e+02 0.0000000000e+00 0.0000e+00 1.0000e+00
       21 -1    0    0  501  503 -0.0000000000e+00 -0.0000000000e+00 -6.9404072074e+02 6.9404072074e+02 0.0000000000e+00 0.0000e+00 -1.0000e+00
        6  1    1    2  501    0 +2.5642288279e+01 +9.4099818498e+01 -1.8289314128e+02 2.6998371047e+02 1.7300000000e+02 0.0000e+00 -1.0000e+00
       -6  1    1    2    0  502 -7.3805432879e+01 -1.0793614427e+02 +6.0048577874e+00 2.1693895796e+02 1.7300000000e+02 0.0000e+00 1.0000e+00
       21  1    1    2  504  503 +3.1895414771e+01 +3.4995164268e+01 -3.6029552392e+02 3.6339351062e+02 0.0000000000e+00 0.0000e+00 -1.0000e+00
       21  1    1    2  505  504 +1.6267729828e+01 -2.1158838499e+01 +6.1225490829e+02 6.1283636332e+02 0.0000000000e+00 0.0000e+00 1.0000e+00
<mgrwt>
<rscale>  4 0.21214548E+03</rscale>
<asrwt>0</asrwt>
<pdfrwt beam="1">  1       21 0.11832490E+00 0.21214548E+03</pdfrwt>
<pdfrwt beam="2">  1       21 0.10677550E+00 0.21214548E+03</pdfrwt>
<totfact> 0.37539320E+02</totfact>
</mgrwt>
</event>
<event>
 6      1 +2.5168323e+02 4.52996600e+02 7.54677100e-03 1.15942100e-01
       21 -1    0    0  504  502 +0.0000000000e+00 +0.0000000000e+00 +4.9030775056e+02 4.9030775056e+02 0.0000000000e+00 0.0000e+00 1.0000e+00
       21 -1    0    0  501  503 -0.0000000000e+00 -0.0000000000e+00 -2.8409910174e+02 2.8409910174e+02 0.0000000000e+00 0.0000e+00 1.0000e+00
        6  1    1    2  501    0 +1.1971358368e+02 +1.3525550245e+02 +1.1963423569e+02 2.7724852283e+02 1.7300000000e+02 0.0000e+00 1.0000e+00
       -6  1    1    2    0  502 +7.9917164052e+01 +6.1292685017e+01 +4.8757015207e+01 2.0603347514e+02 1.7300000000e+02 0.0000e+00 1.0000e+00
       21  1    1    2  504  505 -3.2159836062e+01 -7.2152186653e+01 -6.1730034145e-01 7.8997304727e+01 0.0000000000e+00 0.0000e+00 1.0000e+00
       21  1    1    2  505  503 -1.6747091167e+02 -1.2439600082e+02 +3.8434698268e+01 2.1212754961e+02 0.0000000000e+00 0.0000e+00 1.0000e+00
<mgrwt>
<rscale>  4 0.45299655E+03</rscale>
<asrwt>0</asrwt>
<pdfrwt beam="1">  1       21 0.75431962E-01 0.45299655E+03</pdfrwt>
<pdfrwt beam="2">  1       21 0.43707554E-01 0.45299655E+03</pdfrwt>
<totfact> 0.69869568E+03</totfact>
</mgrwt>
</event>
<event>
 6      1 +2.5168323e+02 2.38669300e+02 7.54677100e-03 1.03924000e-01
       21 -1    0    0  504  502 +0.0000000000e+00 +0.0000000000e+00 +1.1328672616e+03 1.1328672616e+03 0.0000000000e+00 0.0000e+00 -1.0000e+00
       21 -1    0    0  501  503 -0.0000000000e+00 -0.0000000000e+00 -1.3789675179e+02 1.3789675179e+02 0.0000000000e+00 0.0000e+00 -1.0000e+00
        6  1    1    2  501    0 -1.5981416866e+02 +4.0618691437e+01 +5.7946710563e+01 2.4592126355e+02 1.7300000000e+02 0.0000e+00 -1.0000e+00
       -6  1    1    2    0  505 +1.5623300348e+02 -4.8168933580e+01 +3.0215048419e+02 3.8464647747e+02 1.7300000000e+02 0.0000e+00 -1.0000e+00
       21  1    1    2  504  503 +2.5069346638e+01 -2.8663286917e+01 +2.2900570484e+02 2.3215010016e+02 0.0000000000e+00 0.0000e+00 -1.0000e+00
       21  1    1    2  505  502 -2.1488181451e+01 +3.6213529060e+01 +4.0586761026e+02 4.0804617225e+02 0.0000000000e+00 0.0000e+00 -1.0000e+00
<mgrwt>
<rscale>  4 0.23866935E+03</rscale>
<asrwt>0</asrwt>
<pdfrwt beam="1">  1       21 0.17428727E+00 0.23866935E+03</pdfrwt>
<pdfrwt beam="2">  1       21 0.21214886E-01 0.23866935E+03</pdfrwt>
<totfact> 0.39614601E+03</totfact>
</mgrwt>
</event>
<event>
 6      1 +2.5168323e+02 2.85119000e+02 7.54677100e-03 1.04003000e-01
       21 -1    0    0  504  502 +0.0000000000e+00 +0.0000000000e+00 +1.2028060290e+03 1.2028060290e+03 0.0000000000e+00 0.0000e+00 -1.0000e+00
       21 -1    0    0  502  503 -0.0000000000e+00 -0.0000000000e+00 -9.6387839167e+01 9.6387839167e+01 0.0000000000e+00 0.0000e+00 1.0000e+00
        6  1    1    2  501    0 -1.8153748009e+02 +1.3414747157e+02 +7.1788948883e+02 7.7216948851e+02 1.7300000000e+02 0.0000e+00 -1.0000e+00
       -6  1    1    2    0  505 +2.0270129235e+02 -1.0858059119e+02 +3.4626291567e+02 4.5022723760e+02 1.7300000000e+02 0.0000e+00 1.0000e+00
       21  1    1    2  504  501 +1.6725749002e+01 -1.6976767989e+01 +8.4344148777e+00 2.5280440767e+01 0.0000000000e+00 0.0000e+00 -1.0000e+00
       21  1    1    2  505  503 -3.7889561269e+01 -8.5901123917e+00 +3.3831370404e+01 5.1516701248e+01 0.0000000000e+00 0.0000e+00 1.0000e+00
<mgrwt>
<rscale>  4 0.28511902E+03</rscale>
<asrwt>0</asrwt>
<pdfrwt beam="1">  1       21 0.18504707E+00 0.28511902E+03</pdfrwt>
<pdfrwt beam="2">  1       21 0.14828899E-01 0.28511902E+03</pdfrwt>
<totfact> 0.63014786E+03</totfact>
</mgrwt>
</event>
<event>
 6      1 +2.5168323e+02 2.22317400e+02 7.54677100e-03 1.12989000e-01
       21 -1    0    0  501  502 +0.0000000000e+00 +0.0000000000e+00 +4.3558019708e+02 4.3558019708e+02 0.0000000000e+00 0.0000e+00 1.0000e+00
       21 -1    0    0  502  503 -0.0000000000e+00 -0.0000000000e+00 -3.9590788562e+02 3.9590788562e+02 0.0000000000e+00 0.0000e+00 1.0000e+00
        6  1    1    2  501    0 -1.7451152403e+02 +5.0398331030e+01 +2.2966172816e+02 3.4009965182e+02 1.7300000000e+02 0.0000e+00 1.0000e+00
       -6  1    1    2    0  504 +2.6661130156e+01 -1.1134881680e+02 +2.6488218760e+01 2.0914110212e+02 1.7300000000e+02 0.0000e+00 -1.0000e+00
       21  1    1    2  504  505 +4.4957067031e+01 -1.1711410876e+01 -2.4198116889e+01 5.2381713237e+01 0.0000000000e+00 0.0000e+00 -1.0000e+00
       21  1    1    2  505  503 +1.0289332684e+02 +7.2661896643e+01 -1.9227951858e+02 2.2986561552e+02 0.0000000000e+00 0.0000e+00 1.0000e+00
<mgrwt>
<rscale>  4 0.22231740E+03</rscale>
<asrwt>0</asrwt>
<pdfrwt beam="1">  1       21 0.67012338E-01 0.22231740E+03</pdfrwt>
<pdfrwt beam="2">  1       21 0.60908905E-01 0.22231740E+03</pdfrwt>
<totfact> 0.50036299E+03</totfact>
</mgrwt>
</event>
<event>
 6      1 +2.5168323e+02 2.39614000e+02 7.54677100e-03 1.17132900e-01
       21 -1    0    0  503  502 +0.0000000000e+00 +0.0000000000e+00 +2.0294042159e+02 2.0294042159e+02 0.0000000000e+00 0.0000e+00 1.0000e+00
       21 -1    0    0  504  503 -0.0000000000e+00 -0.0000000000e+00 -1.6768672040e+03 1.6768672040e+03 0.0000000000e+00 0.0000e+00 -1.0000e+00
        6  1    1    2  501    0 +9.6935082250e+01 +6.3496925613e+01 -3.7811610212e+02 4.3165849513e+02 1.7300000000e+02 0.0000e+00 -1.0000e+00
       -6  1    1    2    0  505 -1.4378106534e+02 -1.2598271835e+02 -1.2285874104e+03 1.2553488221e+03 1.7300000000e+02 0.0000e+00 -1.0000e+00
       21  1    1    2  504  501 +2.8684162506e+01 +4.2626222071e+01 -5.7354999774e+00 5.1697891124e+01 0.0000000000e+00 0.0000e+00 -1.0000e+00
       21  1    1    2  505  502 +1.8161820580e+01 +1.9859570666e+01 +1.3851223009e+02 1.4110241727e+02 0.0000000000e+00 0.0000e+00 1.0000e+00
<mgrwt>
<rscale>  4 0.23961404E+03</rscale>
<asrwt>0</asrwt>
<pdfrwt beam="1">  1       21 0.31221602E-01 0.23961404E+03</pdfrwt>
<pdfrwt beam="2">  1       21 0.25797958E+00 0.23961404E+03</pdfrwt>
<totfact> 0.55626502E+02</totfact>
</mgrwt>
</event>
<event>
 6      1 +2.5168323e+02 1.78569100e+02 7.54677100e-03 1.03924000e-01
       21 -1    0    0  504  502 +0.0000000000e+00 +0.0000000000e+00 +9.0814875405e+02 9.0814875405e+02 0.0000000000e+00 0.0000e+00 -1.0000e+00
       21 -1    0    0  501  503 -0.0000000000e+00 -0.0000000000e+00 -5.2759027751e+01 5.2759027751e+01 0.0000000000e+00 0.0000e+00 -1.0000e+00
        6  1    1    2  501    0 +2.3065280994e+01 -1.2449554750e+01 +2.3231130168e+02 2.9083421307e+02 1.7300000000e+02 0.0000e+00 -1.0000e+00
       -6  1    1    2    0  505 -5.9069180823e+01 +5.3555980352e+01 +4.8347900155e+02 5.1965214913e+02 1.7300000000e+02 0.0000e+00 -1.0000e+00
       21  1    1    2  504  503 +1.1852160549e+01 -1.9342868335e+01 +4.5062166492e+01 5.0450164658e+01 0.0000000000e+00 0.0000e+00 -1.0000e+00
       21  1    1    2  505  502 +2.4151739279e+01 -2.1763557268e+01 +9.4537256568e+01 9.9971254942e+01 0.0000000000e+00 0.0000e+00 -1.0000e+00
<mgrwt>
<rscale>  4 0.17856906E+03</rscale>
<asrwt>0</asrwt>
<pdfrwt beam="1">  1       21 0.13971518E+00 0.17856906E+03</pdfrwt>
<pdfrwt beam="2">  1       21 0.81167742E-02 0.17856906E+03</pdfrwt>
<totfact> 0.42429345E+04</totfact>
</mgrwt>
</event>
<event>
 6      1 +2.5168323e+02 1.96819000e+02 7.54677100e-03 1.16820100e-01
       21 -1    0    0  504  502 +0.0000000000e+00 +0.0000000000e+00 +7.0157371311e+02 7.0157371311e+02 0.0000000000e+00 0.0000e+00 -1.0000e+00
       21 -1    0    0  501  503 -0.0000000000e+00 -0.0000000000e+00 -2.8858338973e+02 2.8858338973e+02 0.0000000000e+00 0.0000e+00 -1.0000e+00
        6  1    1    2  501    0 -2.4115482309e+00 +5.3617776009e+01 -1.5725125016e+02 2.3987004220e+02 1.7300000000e+02 0.0000e+00 -1.0000e+00
       -6  1    1    2    0  505 +6.5069024401e+01 -1.0017803008e+02 +2.5330499111e+02 3.2918389111e+02 1.7300000000e+02 0.0000e+00 -1.0000e+00
       21  1    1    2  504  503 -5.8154832242e+01 +2.3995701483e+01 -3.2568660089e+01 7.0841342609e+01 0.0000000000e+00 0.0000e+00 -1.0000e+00
       21  1    1    2  505  502 -4.5026439283e+00 +2.2564552586e+01 +3.4950524253e+02 3.5026182692e+02 0.0000000000e+00 0.0000e+00 -1.0000e+00
<mgrwt>
<rscale>  4 0.19681902E+03</rscale>
<asrwt>0</asrwt>
<pdfrwt beam="1">  1       21 0.10793442E+00 0.19681902E+03</pdfrwt>
<pdfrwt beam="2">  1       21 0.44397445E-01 0.19681902E+03</pdfrwt>
<totfact> 0.33190031E+03</totfact>
</mgrwt>
</event>
<event>
 6      1 +2.5168323e+02 2.06136900e+02 7.54677100e-03 9.87464100e-02
       21 -1    0    0  503  502 +0.0000000000e+00 +0.0000000000e+00 +2.1148649100e+02 2.1148649100e+02 0.0000000000e+00 0.0000e+00 -1.0000e+00
       21 -1    0    0  505  503 -0.0000000000e+00 -0.0000000000e+00 -1.2472136623e+03 1.2472136623e+03 0.0000000000e+00 0.0000e+00 1.0000e+00
        6  1    1    2  501    0 -1.1078001211e+02 -5.7332979153e+01 -4.3693850364e+02 4.8621346911e+02 1.7300000000e+02 0.0000e+00 1.0000e+00
       -6  1    1    2    0  504 +1.1377947686e+02 +1.0662257379e+01 +1.0401351109e+02 2.3196392732e+02 1.7300000000e+02 0.0000e+00 -1.0000e+00
       21  1    1    2  504  502 -2.4953225868e+00 -4.1162196655e+01 -1.0342857903e+01 4.2515030024e+01 0.0000000000e+00 0.0000e+00 1.0000e+00
       21  1    1    2  505  501 -5.0414216621e-01 +8.7832918429e+01 -6.9245932089e+02 6.9800772690e+02 0.0000000000e+00 0.0000e+00 1.0000e+00
<mgrwt>
<rscale>  4 0.20613685E+03</rscale>
<asrwt>0</asrwt>
<pdfrwt beam="1">  1       21 0.32536383E-01 0.20613685E+03</pdfrwt>
<pdfrwt beam="2">  1       21 0.19187903E+00 0.20613685E+03</pdfrwt>
<totfact> 0.13586626E+03</totfact>
</mgrwt>
</event>
<event>
 6      1 +2.5168323e+02 2.93767100e+02 7.54677100e-03 1.16820100e-01
       21 -1    0    0  505  502 +0.0000000000e+00 +0.0000000000e+00 +4.7270146096e+02 4.7270146096e+02 0.0000000000e+00 0.0000e+00 -1.0000e+00
       21 -1    0    0  502  503 -0.0000000000e+00 -0.0000000000e+00 -1.1151197978e+03 1.1151197978e+03 0.0000000000e+00 0.0000e+00 -1.0000e+00
        6  1    1    2  501    0 -1.3605830384e+02 +1.2483581505e+02 +7.4488046133e+01 2.6376753360e+02 1.7300000000e+02 0.0000e+00 -1.0000e+00
       -6  1    1    2    0  503 +2.5917589556e+02 -5.0299496493e+01 -7.2481316244e+02 7.9056012083e+02 1.7300000000e+02 0.0000e+00 -1.0000e+00
       21  1    1    2  504  501 -6.0702021601e+01 -1.1026116283e+02 -2.4236232955e+02 2.7309660972e+02 0.0000000000e+00 0.0000e+00 -1.0000e+00
       21  1    1    2  505  504 -6.2415570125e+01 +3.5724844268e+01 +2.5026910901e+02 2.6039699464e+02 0.0000000000e+00 0.0000e+00 -1.0000e+00
<mgrwt>
<rscale>  4 0.29376706E+03</rscale>
<asrwt>0</asrwt>
<pdfrwt beam="1">  1       21 0.72723303E-01 0.29376706E+03</pdfrwt>
<pdfrwt beam="2">  1       21 0.17155689E+00 0.29376706E+03</pdfrwt>
<totfact> 0.32053554E+02</totfact>
</mgrwt>
</event>
<event>
 6      1 +2.5168323e+02 2.54093300e+02 7.54677100e-03 1.11910500e-01
       21 -1    0    0  501  502 +0.0000000000e+00 +0.0000000000e+00 +5.7501891810e+01 5.7501891810e+01 0.0000000000e+00 0.0000e+00 -1.0000e+00
       21 -1    0    0  504  503 -0.0000000000e+00 -0.0000000000e+00 -1.9561410518e+03 1.9561410518e+03 0.0000000000e+00 0.0000e+00 -1.0000e+00
        6  1    1    2  501    0 -1.8158845427e+02 -9.4465091966e+01 -3.7247476412e+02 4.5887304370e+02 1.7300000000e+02 0.0000e+00 -1.0000e+00
       -6  1    1    2    0  503 +1.2132110820e+02 +7.1118566809e+01 -1.0079221877e+03 1.0322852310e+03 1.7300000000e+02 0.0000e+00 -1.0000e+00
       21  1    1    2  504  505 +1.6717035510e+01 +1.2114908006e+01 -2.0364953383e+02 2.0469333869e+02 0.0000000000e+00 0.0000e+00 -1.0000e+00
       21  1    1    2  505  502 +4.3550310564e+01 +1.1231617151e+01 -3.1459267442e+02 3.1779133023e+02 0.0000000000e+00 0.0000e+00 -1.0000e+00
<mgrwt>
<rscale>  4 0.25409330E+03</rscale>
<asrwt>0</asrwt>
<pdfrwt beam="1">  1       21 0.88464463E-02 0.25409330E+03</pdfrwt>
<pdfrwt beam="2">  1       21 0.30094473E+00 0.25409330E+03</pdfrwt>
<totfact> 0.31799498E+03</totfact>
</mgrwt>
</event>
<event>
 6      1 +2.5168323e+02 2.21166300e+02 7.54677100e-03 1.03924000e-01
       21 -1    0    0  504  502 +0.0000000000e+00 +0.0000000000e+00 +6.5338810713e+02 6.5338810713e+02 0.0000000000e+00 0.0000e+00 1.0000e+00
       21 -1    0    0  501  503 -0.0000000000e+00 -0.0000000000e+00 -2.6617601737e+02 2.6617601737e+02 0.0000000000e+00 0.0000e+00 -1.0000e+00
        6  1    1    2  501    0 +7.1191776444e+00 -1.3293940524e+02 -1.5629608877e+02 2.6847911562e+02 1.7300000000e+02 0.0000e+00 -1.0000e+00
       -6  1    1    2    0  505 -9.5628114228e+01 +1.6432509608e+02 +3.7768766447e+02 4.5686370541e+02 1.7300000000e+02 0.0000e+00 1.0000e+00
       21  1    1    2  504  503 +2.5043167160e+01 -1.2344957016e+00 +1.9018301809e+01 3.1470303537e+01 0.0000000000e+00 0.0000e+00 -1.0000e+00
       21  1    1    2  505  502 +6.3465769424e+01 -3.0151195138e+01 +1.4680221225e+02 1.6275099993e+02 0.0000000000e+00 0.0000e+00 1.0000e+00
<mgrwt>
<rscale>  4 0.22116631E+03</rscale>
<asrwt>0</asrwt>
<pdfrwt beam="1">  1       21 0.10052125E+00 0.22116631E+03</pdfrwt>
<pdfrwt beam="2">  1       21 0.40950157E-01 0.22116631E+03</pdfrwt>
<totfact> 0.45561234E+03</totfact>
</mgrwt>
</event>
<event>
 6      1 +2.5168323e+02 2.06287000e+02 7.54677100e-03 1.05831300e-01
       21 -1    0    0  504  502 +0.0000000000e+00 +0.0000000000e+00 +1.1816500094e+02 1.1816500094e+02 0.0000000000e+00 0.0000e+00 1.0000e+00
       21 -1    0    0  501  503 -0.0000000000e+00 -0.0000000000e+00 -1.0117610299e+03 1.0117610299e+03 0.0000000000e+00 0.0000e+00 -1.0000e+00
        6  1    1    2  501    0 -1.1338316159e+02 -1.3994400777e+01 -2.6162987149e+02 3.3381248365e+02 1.7300000000e+02 0.0000e+00 -1.0000e+00
       -6  1    1    2    0  505 +1.0438954610e+02 +4.2602209309e+01 -5.7996371850e+02 6.1562897946e+02 1.7300000000e+02 0.0000e+00 -1.0000e+00
       21  1    1    2  504  503 +7.3943151432e+01 -4.7488693235e+01 -6.7838488690e+01 1.1101723369e+02 0.0000000000e+00 0.0000e+00 1.0000e+00
       21  1    1    2  505  502 -6.4949535939e+01 +1.8880884702e+01 +1.5836049727e+01 6.9467334027e+01 0.0000000000e+00 0.0000e+00 1.0000e+00
<mgrwt>
<rscale>  4 0.20628703E+03</rscale>
<asrwt>0</asrwt>
<pdfrwt beam="1">  1       21 0.18179232E-01 0.20628703E+03</pdfrwt>
<pdfrwt beam="2">  1       21 0.15565554E+00 0.20628703E+03</pdfrwt>
<totfact> 0.73900426E+03</totfact>
</mgrwt>
</event>
<event>
 6      1 +2.5168323e+02 1.95907500e+02 7.54677100e-03 1.03924000e-01
       21 -1    0    0  504  502 +0.0000000000e+00 +0.0000000000e+00 +4.0404664953e+02 4.0404664953e+02 0.0000000000e+00 0.0000e+00 -1.0000e+00
       21 -1    0    0  501  503 -0.0000000000e+00 -0.0000000000e+00 -1.7017771098e+02 1.7017771098e+02 0.0000000000e+00 0.0000e+00 1.0000e+00
        6  1    1    2  501    0 -3.5033995193e+01 -1.1979806515e+02 +1.4260385005e+01 2.1380204820e+02 1.7300000000e+02 0.0000e+00 -1.0000e+00
       -6  1    1    2    0  505 -2.2806231855e+00 +5.3493531625e+01 +8.2049471374e+01 1.9881618375e+02 1.7300000000e+02 0.0000e+00 1.0000e+00
       21  1    1    2  504  503 +4.2826448615e+01 +4.2335880609e+01 +9.8341845760e+01 1.1531500386e+02 0.0000000000e+00 0.0000e+00 1.0000e+00
       21  1    1    2  505  502 -5.5118302361e+00 +2.3968652916e+01 +3.9217236405e+01 4.6291124704e+01 0.0000000000e+00 0.0000e+00 -1.0000e+00
<mgrwt>
<rscale>  4 0.19590747E+03</rscale>
<asrwt>0</asrwt>
<pdfrwt beam="1">  1       21 0.62161023E-01 0.19590747E+03</pdfrwt>
<pdfrwt beam="2">  1       21 0.26181186E-01 0.19590747E+03</pdfrwt>
<totfact> 0.33235742E+04</totfact>
</mgrwt>
</event>
<event>
 6      1 +2.5168323e+02 2.13452100e+02 7.54677100e-03 1.11671100e-01
       21 -1    0    0  503  502 +0.0000000000e+00 +0.0000000000e+00 +3.2195575990e+02 3.2195575990e+02 0.0000000000e+00 0.0000e+00 -1.0000e+00
       21 -1    0    0  501  503 -0.0000000000e+00 -0.0000000000e+00 -6.9295937005e+02 6.9295937005e+02 0.0000000000e+00 0.0000e+00 -1.0000e+00
        6  1    1    2  501    0 +6.7668933344e+01 -9.1181050968e+01 +4.2059410061e+00 2.0697767642e+02 1.7300000000e+02 0.0000e+00 -1.0000e+00
       -6  1    1    2    0  504 -2.7929026504e+01 +1.2584584773e+02 -5.4688688512e+02 5.8790430601e+02 1.7300000000e+02 0.0000e+00 -1.0000e+00
       21  1    1    2  504  505 +8.2077037374e+00 -5.0115301376e+01 +1.1428777480e+01 5.2053115059e+01 0.0000000000e+00 0.0000e+00 -1.0000e+00
       21  1    1    2  505  502 -4.7947610577e+01 +1.5450504609e+01 +1.6024855648e+02 1.6798003247e+02 0.0000000000e+00 0.0000e+00 -1.0000e+00
<mgrwt>
<rscale>  4 0.21345210E+03</rscale>
<asrwt>0</asrwt>
<pdfrwt beam="1">  1       21 0.49531656E-01 0.21345210E+03</pdfrwt>
<pdfrwt beam="2">  1       21 0.10660913E+00 0.21345210E+03</pdfrwt>
<totfact> 0.26889338E+03</totfact>
</mgrwt>
</event>
<event>
 6      1 +2.5168323e+02 2.34229000e+02 7.54677100e-03 1.17132900e-01
       21 -1    0    0  505  502 +0.0000000000e+00 +0.0000000000e+00 +6.4566412964e+01 6.4566412964e+01 0.0000000000e+00 0.0000e+00 -1.0000e+00
       21 -1    0    0  504  503 -0.0000000000e+00 -0.0000000000e+00 -1.9450833478e+03 1.9450833478e+03 0.0000000000e+00 0.0000e+00 -1.0000e+00
        6  1    1    2  501    0 -1.3166510308e+02 -1.9401677568e+02 -7.1738962836e+02 7.7430942619e+02 1.7300000000e+02 0.0000e+00 -1.0000e+00
       -6  1    1    2    0  502 +1.0735502143e+02 +4.2111496423e+01 -4.2984597903e+02 4.7748826629e+02 1.7300000000e+02 0.0000e+00 -1.0000e+00
       21  1    1    2  504  501 +2.8510323550e+01 +1.1511496234e+02 -6.9325019102e+02 7.0332078062e+02 0.0000000000e+00 0.0000e+00 -1.0000e+00
       21  1    1    2  505  503 -4.2002419010e+00 +3.6790316915e+01 -4.0031136443e+01 5.4531287677e+01 0.0000000000e+00 0.0000e+00 -1.0000e+00
<mgrwt>
<rscale>  4 0.23422903E+03</rscale>
<asrwt>0</asrwt>
<pdfrwt beam="1">  1       21 0.99332952E-02 0.23422903E+03</pdfrwt>
<pdfrwt beam="2">  1       21 0.29924357E+00 0.23422903E+03</pdfrwt>
<totfact> 0.27011503E+03</totfact>
</mgrwt>
</event>
<event>
 6      1 +2.5168323e+02 2.69078600e+02 7.54677100e-03 1.03924000e-01
       21 -1    0    0  504  502 +0.0000000000e+00 +0.0000000000e+00 +5.5931968563e+02 5.5931968563e+02 0.0000000000e+00 0.0000e+00 1.0000e+00
       21 -1    0    0  501  503 -0.0000000000e+00 -0.0000000000e+00 -4.5327352806e+02 4.5327352806e+02 0.0000000000e+00 0.0000e+00 1.0000e+00
        6  1    1    2  501    0 -6.2167807862e+01 -1.8465790321e+02 -2.5813088709e+02 3.6677504334e+02 1.7300000000e+02 0.0000e+00 1.0000e+00
       -6  1    1    2    0  505 -3.6086729347e+01 +2.6584301364e+02 +7.4601294244e+01 3.2782482066e+02 1.7300000000e+02 0.0000e+00 -1.0000e+00
       21  1    1    2  504  503 +4.8537792011e+01 -3.4601818901e+01 +9.8474511963e+01 1.1511052355e+02 0.0000000000e+00 0.0000e+00 -1.0000e+00
       21  1    1    2  505  502 +4.9716745198e+01 -4.6583291533e+01 +1.9110123845e+02 2.0288282614e+02 0.0000000000e+00 0.0000e+00 1.0000e+00
<mgrwt>
<rscale>  4 0.26907864E+03</rscale>
<asrwt>0</asrwt>
<pdfrwt beam="1">  1       21 0.86049182E-01 0.26907864E+03</pdfrwt>
<pdfrwt beam="2">  1       21 0.69734389E-01 0.26907864E+03</pdfrwt>
<totfact> 0.20516287E+03</totfact>
</mgrwt>
</event>
<event>
 6      1 +2.5168323e+02 3.48693000e+02 7.54677100e-03 1.06249800e-01
       21 -1    0    0  504  502 +0.0000000000e+00 +0.0000000000e+00 +1.2683793601e+03 1.2683793601e+03 0.0000000000e+00 0.0000e+00 -1.0000e+00
       21 -1    0    0  501  503 -0.0000000000e+00 -0.0000000000e+00 -1.6225834213e+02 1.6225834213e+02 0.0000000000e+00 0.0000e+00 -1.0000e+00
        6  1    1    2  501    0 +2.8487483918e+02 +1.1661264738e+01 +6.4346749741e+02 7.2475449590e+02 1.7300000000e+02 0.0000e+00 -1.0000e+00
       -6  1    1    2    0  505 -3.0874198501e+02 -2.5789783728e+01 +1.5515742792e+02 3.8728484826e+02 1.7300000000e+02 0.0000e+00 -1.0000e+00
       21  1    1    2  504  503 +6.4624557798e+00 -2.8781219668e+01 +6.0604708157e+01 6.7402170522e+01 0.0000000000e+00 0.0000e+00 -1.0000e+00
       21  1    1    2  505  502 +1.7404690048e+01 +4.2909738658e+01 +2.4689138447e+02 2.5119618753e+02 0.0000000000e+00 0.0000e+00 -1.0000e+00
<mgrwt>
<rscale>  4 0.34869299E+03</rscale>
<asrwt>0</asrwt>
<pdfrwt beam="1">  1       21 0.19513528E+00 0.34869299E+03</pdfrwt>
<pdfrwt beam="2">  1       21 0.24962823E-01 0.34869299E+03</pdfrwt>
<totfact> 0.19478537E+03</totfact>
</mgrwt>
</event>
<event>
 6      1 +2.5168323e+02 2.53275700e+02 7.54677100e-03 1.17132900e-01
       21 -1    0    0  505  502 +0.0000000000e+00 +0.0000000000e+00 +1.3484048987e+02 1.3484048987e+02 0.0000000000e+00 0.0000e+00 1.0000e+00
       21 -1    0    0  504  503 -0.0000000000e+00 -0.0000000000e+00 -1.8424392814e+03 1.8424392814e+03 0.0000000000e+00 0.0000e+00 -1.0000e+00
        6  1    1    2  501    0 +1.4845113955e+02 +1.0110886464e+02 -8.5186250921e+02 8.8761448723e+02 1.7300000000e+02 0.0000e+00 -1.0000e+00
       -6  1    1    2    0  502 -1.5774866985e+02 -1.0670701533e+02 -8.8009036903e+02 9.1692916172e+02 1.7300000000e+02 0.0000e+00 1.0000e+00
       21  1    1    2  504  501 +1.7979585560e+01 -2.0862012147e+01 -6.9542255538e+01 7.4797154712e+01 0.0000000000e+00 0.0000e+00 1.0000e+00
       21  1    1    2  505  503 -8.6820552642e+00 +2.6460162832e+01 +9.3896342215e+01 9.7938967639e+01 0.0000000000e+00 0.0000e+00 1.0000e+00
<mgrwt>
<rscale>  4 0.25327572E+03</rscale>
<asrwt>0</asrwt>
<pdfrwt beam="1">  1       21 0.20744692E-01 0.25327572E+03</pdfrwt>
<pdfrwt beam="2">  1       21 0.28345218E+00 0.25327572E+03</pdfrwt>
<totfact> 0.85395039E+02</totfact>
</mgrwt>
</event>
<event>
 6      1 +2.5168323e+02 2.21849600e+02 7.54677100e-03 1.17132900e-01
       21 -1    0    0  505  502 +0.0000000000e+00 +0.0000000000e+00 +1.3169443000e+03 1.3169443000e+03 0.0000000000e+00 0.0000e+00 -1.0000e+00
       21 -1    0    0  504  503 -0.0000000000e+00 -0.0000000000e+00 -2.5512234918e+02 2.5512234918e+02 0.0000000000e+00 0.0000e+00 -1.0000e+00
        6  1    1    2  501    0 -1.5471025312e+02 +2.6783515966e+01 +3.0519705992e+02 3.8435252638e+02 1.7300000000e+02 0.0000e+00 -1.0000e+00
       -6  1    1    2    0  502 +1.3961515264e+02 -5.7951474176e+01 -1.2567172640e+02 2.6186474948e+02 1.7300000000e+02 0.0000e+00 -1.0000e+00
       21  1    1    2  504  501 -1.4632263018e+01 +1.5744601381e+01 -1.6083410967e+01 2.6845329239e+01 0.0000000000e+00 0.0000e+00 1.0000e+00
       21  1    1    2  505  503 +2.9727363498e+01 +1.5423356829e+01 +8.9838002824e+02 8.9900404405e+02 0.0000000000e+00 0.0000e+00 -1.0000e+00
<mgrwt>
<rscale>  4 0.22184965E+03</rscale>
<asrwt>0</asrwt>
<pdfrwt beam="1">  1       21 0.20260681E+00 0.22184965E+03</pdfrwt>
<pdfrwt beam="2">  1       21 0.39249593E-01 0.22184965E+03</pdfrwt>
<totfact> 0.78300710E+02</totfact>
</mgrwt>
</event>
<event>
 6      1 +2.5168323e+02 3.30368400e+02 7.54677100e-03 1.06249800e-01
       21 -1    0    0  505  502 +0.0000000000e+00 +0.0000000000e+00 +1.0357101940e+03 1.0357101940e+03 0.0000000000e+00 0.0000e+00 1.0000e+00
       21 -1    0    0  501  503 -0.0000000000e+00 -0.0000000000e+00 -2.4330839496e+02 2.4330839496e+02 0.0000000000e+00 0.0000e+00 1.0000e+00
        6  1    1    2  501    0 +8.3764260495e+01 -8.2575143321e+01 +1.9696681726e+02 2.8733261690e+02 1.7300000000e+02 0.0000e+00 -1.0000e+00
       -6  1    1    2    0  502 -2.4193640250e+01 -2.6367191167e+02 +2.3241793760e+01 3.1713938609e+02 1.7300000000e+02 0.0000e+00 1.0000e+00
       21  1    1    2  504  503 +1.0457242549e+01 +7.9092523694e+01 +1.0569985616e+02 1.3242900293e+02 0.0000000000e+00 0.0000e+00 1.0000e+00
       21  1    1    2  505  504 -7.0027862794e+01 +2.6715453130e+02 +4.6649333182e+02 5.4211758300e+02 0.0000000000e+00 0.0000e+00 1.0000e+00
<mgrwt>
<rscale>  4 0.29470575E+03</rscale>
<asrwt>0</asrwt>
<pdfrwt beam="1">  1       21 0.15934003E+00 0.33036838E+03</pdfrwt>
<pdfrwt beam="2">  1       21 0.37432061E-01 0.33036838E+03</pdfrwt>
<totfact> 0.15777826E+03</totfact>
</mgrwt>
</event>
<event>
 6      1 +2.5168323e+02 2.86890900e+02 7.54677100e-03 1.12989000e-01
       21 -1    0    0  505  502 +0.0000000000e+00 +0.0000000000e+00 +5.0943021353e+02 5.0943021353e+02 0.0000000000e+00 0.0000e+00 -1.0000e+00
       21 -1    0    0  501  503 -0.0000000000e+00 -0.0000000000e+00 -3.2278491489e+02 3.2278491489e+02 0.0000000000e+00 0.0000e+00 1.0000e+00
        6  1    1    2  501    0 -5.9052720044e+01 +2.3429223154e+02 -8.3753935227e+01 3.0874551846e+02 1.7300000000e+02 0.0000e+00 -1.0000e+00
       -6  1    1    2    0  502 -4.4070929292e+00 -3.0211334157e+01 +2.3234506916e+02 2.9128230008e+02 1.7300000000e+02 0.0000e+00 -1.0000e+00
       21  1    1    2  504  503 +7.2899061240e+01 -1.0235731285e+02 +3.2889957082e+01 1.2989627362e+02 0.0000000000e+00 0.0000e+00 1.0000e+00
       21  1    1    2  505  504 -9.4392482670e+00 -1.0172358453e+02 +5.1642076324e+00 1.0229103625e+02 0.0000000000e+00 0.0000e+00 -1.0000e+00
<mgrwt>
<rscale>  4 0.25378394E+03</rscale>
<asrwt>0</asrwt>
<pdfrwt beam="1">  1       21 0.78373879E-01 0.28689094E+03</pdfrwt>
<pdfrwt beam="2">  1       21 0.49659218E-01 0.28689094E+03</pdfrwt>
<totfact> 0.52386495E+03</totfact>
</mgrwt>
</event>
<event>
 6      1 +2.5168323e+02 3.12718900e+02 7.54677100e-03 1.17132900e-01
       21 -1    0    0  503  502 +0.0000000000e+00 +0.0000000000e+00 +1.4318517711e+02 1.4318517711e+02 0.0000000000e+00 0.0000e+00 -1.0000e+00
       21 -1    0    0  504  503 -0.0000000000e+00 -0.0000000000e+00 -1.4870290303e+03 1.4870290303e+03 0.0000000000e+00 0.0000e+00 -1.0000e+00
        6  1    1    2  501    0 -7.0758320547e+01 +2.4913206110e+02 -4.0409718854e+02 5.1019316105e+02 1.7300000000e+02 0.0000e+00 -1.0000e+00
       -6  1    1    2    0  505 +1.2874103728e+02 -8.0575888520e+01 -3.7381894435e+02 4.3901746167e+02 1.7300000000e+02 0.0000e+00 1.0000e+00
       21  1    1    2  504  501 -1.3666001966e+01 +1.0211133386e+02 -1.8263992581e+02 2.0969221877e+02 0.0000000000e+00 0.0000e+00 -1.0000e+00
       21  1    1    2  505  502 -4.4316714772e+01 -2.7066750644e+02 -3.8328779454e+02 4.7131136597e+02 0.0000000000e+00 0.0000e+00 -1.0000e+00
<mgrwt>
<rscale>  4 0.28592203E+03</rscale>
<asrwt>0</asrwt>
<pdfrwt beam="1">  1       21 0.22028489E-01 0.31271892E+03</pdfrwt>
<pdfrwt beam="2">  1       21 0.22877370E+00 0.31271892E+03</pdfrwt>
<totfact> 0.15410026E+03</totfact>
</mgrwt>
</event>
<event>
 6      1 +2.5168323e+02 1.81129700e+02 7.54677100e-03 1.16584500e-01
       21 -1    0    0  504  502 +0.0000000000e+00 +0.0000000000e+00 +1.0388856284e+02 1.0388856284e+02 0.0000000000e+00 0.0000e+00 1.0000e+00
       21 -1    0    0  501  503 -0.0000000000e+00 -0.0000000000e+00 -6.2084713576e+02 6.2084713576e+02 0.0000000000e+00 0.0000e+00 1.0000e+00
        6  1    1    2  501    0 +2.6768020193e+01 -2.5624316229e+01 -1.8201836065e+02 2.5383619935e+02 1.7300000000e+02 0.0000e+00 -1.0000e+00
       -6  1    1    2    0  505 +2.8972200723e+01 +7.2929568911e+01 -3.2983389703e+02 3.8062778415e+02 1.7300000000e+02 0.0000e+00 1.0000e+00
       21  1    1    2  504  503 -4.7142944821e+01 -2.4088413218e+01 -2.4966890689e+01 5.8532508305e+01 0.0000000000e+00 0.0000e+00 1.0000e+00
       21  1    1    2  505  502 -8.5972760949e+00 -2.3216839465e+01 +1.9860575449e+01 3.1739206797e+01 0.0000000000e+00 0.0000e+00 1.0000e+00
<mgrwt>
<rscale>  4 0.18112965E+03</rscale>
<asrwt>0</asrwt>
<pdfrwt beam="1">  1       21 0.15982856E-01 0.18112965E+03</pdfrwt>
<pdfrwt beam="2">  1       21 0.95514942E-01 0.18112965E+03</pdfrwt>
<totfact> 0.32160114E+04</totfact>
</mgrwt>
</event>
<event>
 6      1 +2.5168323e+02 2.04384300e+02 7.54677100e-03 1.15942100e-01
       21 -1    0    0  504  502 +0.0000000000e+00 +0.0000000000e+00 +4.8125943007e+02 4.8125943007e+02 0.0000000000e+00 0.0000e+00 1.0000e+00
       21 -1    0    0  501  503 -0.0000000000e+00 -0.0000000000e+00 -5.0326904191e+02 5.0326904191e+02 0.0000000000e+00 0.0000e+00 1.0000e+00
        6  1    1    2  501    0 -2.3401674785e+01 -1.3759308683e+02 -1.8501128277e+02 2.8920178194e+02 1.7300000000e+02 0.0000e+00 1.0000e+00
       -6  1    1    2    0  502 -5.8762475574e+01 +9.1810008686e+01 +3.8710986526e+02 4.3779579031e+02 1.7300000000e+02 0.0000e+00 1.0000e+00
       21  1    1    2  504  505 +5.3208998960e+01 +6.8170845708e+01 -1.2603429950e+02 1.5284994742e+02 0.0000000000e+00 0.0000e+00 1.0000e+00
       21  1    1    2  505  503 +2.8955151399e+01 -2.2387767567e+01 -9.8073894831e+01 1.0468095231e+02 0.0000000000e+00 0.0000e+00 1.0000e+00
<mgrwt>
<rscale>  4 0.20438427E+03</rscale>
<asrwt>0</asrwt>
<pdfrwt beam="1">  1       21 0.74039912E-01 0.20438427E+03</pdfrwt>
<pdfrwt beam="2">  1       21 0.77426006E-01 0.20438427E+03</pdfrwt>
<totfact> 0.23978526E+03</totfact>
</mgrwt>
</event>
<event>
 6      1 +2.5168323e+02 1.84748000e+02 7.54677100e-03 1.16820100e-01
       21 -1    0    0  504  502 +0.0000000000e+00 +0.0000000000e+00 +7.0375400978e+01 7.0375400978e+01 0.0000000000e+00 0.0000e+00 1.0000e+00
       21 -1    0    0  501  503 -0.0000000000e+00 -0.0000000000e+00 -1.0436496769e+03 1.0436496769e+03 0.0000000000e+00 0.0000e+00 1.0000e+00
        6  1    1    2  501    0 -2.4703956849e+01 +2.7407404651e+01 -6.0503423023e+02 6.3036249179e+02 1.7300000000e+02 0.0000e+00 1.0000e+00
       -6  1    1    2    0  505 +6.7690320822e+01 -8.7563463051e+01 -2.1628925795e+02 2.9826059529e+02 1.7300000000e+02 0.0000e+00 1.0000e+00
       21  1    1    2  504  503 -1.8010512991e+01 +1.2140068024e+01 -1.2124515963e+02 1.2317527578e+02 0.0000000000e+00 0.0000e+00 1.0000e+00
       21  1    1    2  505  502 -2.4975850981e+01 +4.8015990377e+01 -3.0705628110e+01 6.2226715016e+01 0.0000000000e+00 0.0000e+00 1.0000e+00
<mgrwt>
<rscale>  4 0.18474798E+03</rscale>
<asrwt>0</asrwt>
<pdfrwt beam="1">  1       21 0.10826985E-01 0.18474798E+03</pdfrwt>
<pdfrwt beam="2">  1       21 0.16056149E+00 0.18474798E+03</pdfrwt>
<totfact> 0.17673664E+04</totfact>
</mgrwt>
</event>
<event>
 6      1 +2.5168323e+02 2.06534100e+02 7.54677100e-03 1.17392200e-01
       21 -1    0    0  504  502 +0.0000000000e+00 +0.0000000000e+00 +1.2377706160e+03 1.2377706160e+03 0.0000000000e+00 0.0000e+00 1.0000e+00
       21 -1    0    0  501  503 -0.0000000000e+00 -0.0000000000e+00 -4.8357550404e+01 4.8357550404e+01 0.0000000000e+00 0.0000e+00 -1.0000e+00
        6  1    1    2  501    0 -6.7153121909e+01 -9.9081694400e+01 +4.0209216596e+02 4.5379933217e+02 1.7300000000e+02 0.0000e+00 -1.0000e+00
       -6  1    1    2    0  502 +9.8810703688e+01 +5.5537315455e+01 +6.5796653458e+02 6.8970784337e+02 1.7300000000e+02 0.0000e+00 1.0000e+00
       21  1    1    2  504  505 -1.5459317151e+01 +2.6844071177e+01 +1.0255679384e+02 1.0713305096e+02 0.0000000000e+00 0.0000e+00 1.0000e+00
       21  1    1    2  505  503 -1.6198264628e+01 +1.6700307768e+01 +2.6797571204e+01 3.5487939908e+01 0.0000000000e+00 0.0000e+00 1.0000e+00
<mgrwt>
<rscale>  4 0.20653409E+03</rscale>
<asrwt>0</asrwt>
<pdfrwt beam="1">  1       21 0.19042623E+00 0.20653409E+03</pdfrwt>
<pdfrwt beam="2">  1       21 0.74396241E-02 0.20653409E+03</pdfrwt>
<totfact> 0.20883833E+04</totfact>
</mgrwt>
</event>
<event>
 6      1 +2.5168323e+02 2.78299600e+02 7.54677100e-03 1.16820100e-01
       21 -1    0    0  501  502 +0.0000000000e+00 +0.0000000000e+00 +1.0899462689e+03 1.0899462689e+03 0.0000000000e+00 0.0000e+00 -1.0000e+00
       21 -1    0    0  504  503 -0.0000000000e+00 -0.0000000000e+00 -2.0511910072e+02 2.0511910072e+02 0.0000000000e+00 0.0000e+00 1.0000e+00
        6  1    1    2  501    0 +1.6794761579e+02 -7.3240352165e+01 +4.8361128707e+02 5.4532506619e+02 1.7300000000e+02 0.0000e+00 -1.0000e+00
       -6  1    1    2    0  503 -2.2359459213e+02 +1.3607662882e+02 +4.4687246881e+02 5.4601775972e+02 1.7300000000e+02 0.0000e+00 -1.0000e+00
       21  1    1    2  504  505 +3.5043455221e+01 -4.8207679199e+01 -1.1521476086e+02 1.2971686555e+02 0.0000000000e+00 0.0000e+00 1.0000e+00
       21  1    1    2  505  502 +2.0603521125e+01 -1.4628597454e+01 +6.9558173153e+01 7.4005678151e+01 0.0000000000e+00 0.0000e+00 -1.0000e+00
<mgrwt>
<rscale>  4 0.27829957E+03</rscale>
<asrwt>0</asrwt>
<pdfrwt beam="1">  1       21 0.16768404E+00 0.27829957E+03</pdfrwt>
<pdfrwt beam="2">  1       21 0.31556785E-01 0.27829957E+03</pdfrwt>
<totfact> 0.19924019E+03</totfact>
</mgrwt>
</event>
<event>
 6      1 +2.5168323e+02 2.41209200e+02 7.54677100e-03 1.17132900e-01
       21 -1    0    0  505  502 +0.0000000000e+00 +0.0000000000e+00 +1.6233707952e+02 1.6233707952e+02 0.0000000000e+00 0.0000e+00 -1.0000e+00
       21 -1    0    0  504  503 -0.0000000000e+00 -0.0000000000e+00 -6.4744399318e+02 6.4744399318e+02 0.0000000000e+00 0.0000e+00 -1.0000e+00
        6  1    1    2  501    0 +1.2976534745e+02 +6.7855229751e+01 -1.4496906829e+02 2.6905094009e+02 1.7300000000e+02 0.0000e+00 -1.0000e+00
       -6  1    1    2    0  502 -1.7198848351e+02 -5.8923002799e+01 -3.8423901635e+02 4.5893417873e+02 1.7300000000e+02 0.0000e+00 -1.0000e+00
       21  1    1    2  504  501 +2.2400912999e+01 +4.7549512770e+00 -8.1117260516e+00 2.4294249616e+01 0.0000000000e+00 0.0000e+00 1.0000e+00
       21  1    1    2  505  503 +1.9822223064e+01 -1.3687178229e+01 +5.2212897042e+01 5.7501704258e+01 0.0000000000e+00 0.0000e+00 -1.0000e+00
<mgrwt>
<rscale>  4 0.24120916E+03</rscale>
<asrwt>0</asrwt>
<pdfrwt beam="1">  1       21 0.24974935E-01 0.24120916E+03</pdfrwt>
<pdfrwt beam="2">  1       21 0.99606769E-01 0.24120916E+03</pdfrwt>
<totfact> 0.12197474E+04</totfact>
</mgrwt>
</event>
<event>
 6      1 +2.5168323e+02 2.22898500e+02 7.54677100e-03 1.07064900e-01
       21 -1    0    0  505  502 +0.0000000000e+00 +0.0000000000e+00 +1.6305211013e+03 1.6305211013e+03 0.0000000000e+00 0.0000e+00 1.0000e+00
       21 -1    0    0  501  503 -0.0000000000e+00 -0.0000000000e+00 -2.1045127672e+02 2.1045127672e+02 0.0000000000e+00 0.0000e+00 1.0000e+00
        6  1    1    2  501    0 +8.5784931719e+01 -1.6743218978e+02 +4.2926703727e+01 2.5916075046e+02 1.7300000000e+02 0.0000e+00 1.0000e+00
       -6  1    1    2    0  502 -5.7018184959e+01 +9.0653445053e+01 +1.0172880179e+01 2.0371943453e+02 1.7300000000e+02 0.0000e+00 1.0000e+00
       21  1    1    2  504  503 +3.1064217793e+01 +5.8014756343e+01 +2.2563681784e+02 2.3503759517e+02 0.0000000000e+00 0.0000e+00 1.0000e+00
       21  1    1    2  505  504 -5.9830964553e+01 +1.8763988383e+01 +1.1413334229e+03 1.1430545979e+03 0.0000000000e+00 0.0000e+00 1.0000e+00
<mgrwt>
<rscale>  4 0.22289850E+03</rscale>
<asrwt>0</asrwt>
<pdfrwt beam="1">  1       21 0.25084939E+00 0.22289850E+03</pdfrwt>
<pdfrwt beam="2">  1       21 0.32377121E-01 0.22289850E+03</pdfrwt>
<totfact> 0.58133530E+02</totfact>
</mgrwt>
</event>
<event>
 6      1 +2.5168323e+02 2.87407200e+02 7.54677100e-03 1.07240600e-01
       21 -1    0    0  505  502 +0.0000000000e+00 +0.0000000000e+00 +3.1406900460e+02 3.1406900460e+02 0.0000000000e+00 0.0000e+00 -1.0000e+00
       21 -1    0    0  504  503 -0.0000000000e+00 -0.0000000000e+00 -5.2524188064e+02 5.2524188064e+02 0.0000000000e+00 0.0000e+00 1.0000e+00
        6  1    1    2  501    0 -1.5222024511e+02 +2.0905628174e+02 -1.1771767031e+02 3.3265895728e+02 1.7300000000e+02 0.0000e+00 -1.0000e+00
       -6  1    1    2    0  502 +8.6079342844e+01 -1.9442172436e+02 +6.7638473187e+00 2.7419739204e+02 1.7300000000e+02 0.0000e+00 -1.0000e+00
       21  1    1    2  504  501 +4.7605340722e+01 +2.4941476248e+01 +5.1579691265e+01 7.4490336646e+01 0.0000000000e+00 0.0000e+00 -1.0000e+00
       21  1    1    2  505  503 +1.8535561543e+01 -3.9576033624e+01 -1.5179874431e+02 1.5796419927e+02 0.0000000000e+00 0.0000e+00 1.0000e+00
<mgrwt>
<rscale>  4 0.28740719E+03</rscale>
<asrwt>0</asrwt>
<pdfrwt beam="1">  1       21 0.48318309E-01 0.28740719E+03</pdfrwt>
<pdfrwt beam="2">  1       21 0.80806442E-01 0.28740719E+03</pdfrwt>
<totfact> 0.51732536E+03</totfact>
</mgrwt>
</event>
<event>
 6      1 +2.5168323e+02 2.08209300e+02 7.54677100e-03 1.16362300e-01
       21 -1    0    0  505  502 +0.0000000000e+00 +0.0000000000e+00 +1.0719544819e+03 1.0719544819e+03 0.0000000000e+00 0.0000e+00 1.0000e+00
       21 -1    0    0  502  503 -0.0000000000e+00 -0.0000000000e+00 -1.5403094581e+03 1.5403094581e+03 0.0000000000e+00 0.0000e+00 1.0000e+00
        6  1    1    2  501    0 +9.3763756803e+01 -3.8069190109e+00 -7.6652337240e+02 7.9138689347e+02 1.7300000000e+02 0.0000e+00 -1.0000e+00
       -6  1    1    2    0  503 -1.3062528058e+02 -1.1580133232e+02 -7.3750154792e+02 7.7737407062e+02 1.7300000000e+02 0.0000e+00 1.0000e+00
       21  1    1    2  504  501 +2.4979835894e+01 +1.0007037006e+02 +7.7524301740e+02 7.8207404202e+02 0.0000000000e+00 0.0000e+00 1.0000e+00
       21  1    1    2  505  504 +1.1881687879e+01 +1.9537881270e+01 +2.6042692677e+02 2.6142893393e+02 0.0000000000e+00 0.0000e+00 1.0000e+00
<mgrwt>
<rscale>  4 0.20820926E+03</rscale>
<asrwt>0</asrwt>
<pdfrwt beam="1">  1       21 0.16491607E+00 0.20820926E+03</pdfrwt>
<pdfrwt beam="2">  1       21 0.23697069E+00 0.20820926E+03</pdfrwt>
<totfact> 0.17922628E+01</totfact>
</mgrwt>
</event>
<event>
 6      1 +2.5168323e+02 2.67382600e+02 7.54677100e-03 1.06249800e-01
       21 -1    0    0  504  502 +0.0000000000e+00 +0.0000000000e+00 +7.8775220881e+02 7.8775220881e+02 0.0000000000e+00 0.0000e+00 -1.0000e+00
       21 -1    0    0  501  503 -0.0000000000e+00 -0.0000000000e+00 -6.8514206528e+02 6.8514206528e+02 0.0000000000e+00 0.0000e+00 1.0000e+00
        6  1    1    2  501    0 +1.3076135290e+01 +5.6613107135e+01 -4.4605381593e+02 4.8194297994e+02 1.7300000000e+02 0.0000e+00 1.0000e+00
       -6  1    1    2    0  505 +1.6151196119e+02 +6.1268435884e+01 -1.2379421587e+02 2.7403274024e+02 1.7300000000e+02 0.0000e+00 1.0000e+00
       21  1    1    2  504  503 -1.6382472330e+02 -9.8475454301e+01 +6.6729929696e+02 6.9413565446e+02 0.0000000000e+00 0.0000e+00 -1.0000e+00
       21  1    1    2  505  502 -1.0763373176e+01 -1.9406088717e+01 +5.1588783679e+00 2.2782899452e+01 0.0000000000e+00 0.0000e+00 1.0000e+00
<mgrwt>
<rscale>  4 0.24297986E+03</rscale>
<asrwt>0</asrwt>
<pdfrwt beam="1">  1       21 0.12119265E+00 0.26738263E+03</pdfrwt>
<pdfrwt beam="2">  1       21 0.10540647E+00 0.26738263E+03</pdfrwt>
<totfact> 0.34608373E+02</totfact>
</mgrwt>
</event>
<event>
 6      1 +2.5168323e+02 2.16715700e+02 7.54677100e-03 1.15942100e-01
       21 -1    0    0  504  502 +0.0000000000e+00 +0.0000000000e+00 +2.0465612613e+02 2.0465612613e+02 0.0000000000e+00 0.0000e+00 1.0000e+00
       21 -1    0    0  501  503 -0.0000000000e+00 -0.0000000000e+00 -3.6620424459e+02 3.6620424459e+02 0.0000000000e+00 0.0000e+00 -1.0000e+00
        6  1    1    2  501    0 +2.2027045149e+01 -9.4657883074e+01 -1.3832388216e+02 2.4188386040e+02 1.7300000000e+02 0.0000e+00 1.0000e+00
       -6  1    1    2    0  502 -6.3524999909e+01 +1.3416981890e+02 +3.6056961592e+01 2.3079443320e+02 1.7300000000e+02 0.0000e+00 1.0000e+00
       21  1    1    2  504  505 +2.0851753359e+01 -4.3062060413e+01 -1.6610595705e+01 5.0646308403e+01 0.0000000000e+00 0.0000e+00 -1.0000e+00
       21  1    1    2  505  503 +2.0646201400e+01 +3.5501245859e+00 -4.2670602191e+01 4.7535768724e+01 0.0000000000e+00 0.0000e+00 1.0000e+00
<mgrwt>
<rscale>  4 0.21671569E+03</rscale>
<asrwt>0</asrwt>
<pdfrwt beam="1">  1       21 0.31485558E-01 0.21671569E+03</pdfrwt>
<pdfrwt beam="2">  1       21 0.56339114E-01 0.21671569E+03</pdfrwt>
<totfact> 0.28364377E+04</totfact>
</mgrwt>
</event>
<event>
 6      1 +2.5168323e+02 3.05423300e+02 7.54677100e-03 1.06249800e-01
       21 -1    0    0  504  502 +0.0000000000e+00 +0.0000000000e+00 +3.7835517255e+02 3.7835517255e+02 0.0000000000e+00 0.0000e+00 1.0000e+00
       21 -1    0    0  501  503 -0.0000000000e+00 -0.0000000000e+00 -1.9055339314e+03 1.9055339314e+03 0.0000000000e+00 0.0000e+00 -1.0000e+00
        6  1    1    2  501    0 +2.5091969627e+02 +3.1288116191e+02 -1.2315216162e+03 1.3066865755e+03 1.7300000000e+02 0.0000e+00 -1.0000e+00
       -6  1    1    2    0  505 -9.8321202828e+01 -1.1274615118e+02 -5.5392970020e+02 5.9928779922e+02 1.7300000000e+02 0.0000e+00 1.0000e+00
       21  1    1    2  504  503 -4.0648633223e+01 -3.1604399813e+01 +2.1702969065e+00 5.1535033318e+01 0.0000000000e+00 0.0000e+00 1.0000e+00
       21  1    1    2  505  502 -1.1194986022e+02 -1.6853061092e+02 +2.5610226062e+02 3.2637969592e+02 0.0000000000e+00 0.0000e+00 1.0000e+00
<mgrwt>
<rscale>  4 0.28478148E+03</rscale>
<asrwt>0</asrwt>
<pdfrwt beam="1">  1       21 0.58208489E-01 0.30542330E+03</pdfrwt>
<pdfrwt beam="2">  1       21 0.29315906E+00 0.30542330E+03</pdfrwt>
<totfact> 0.89487925E+01</totfact>
</mgrwt>
</event>
<event>
 6      1 +2.5168323e+02 1.96652900e+02 7.54677100e-03 1.12068800e-01
       21 -1    0    0  504  502 +0.0000000000e+00 +0.0000000000e+00 +1.5949193139e+02 1.5949193139e+02 0.0000000000e+00 0.0000e+00 -1.0000e+00
       21 -1    0    0  502  503 -0.0000000000e+00 -0.0000000000e+00 -5.8088542632e+02 5.8088542632e+02 0.0000000000e+00 0.0000e+00 1.0000e+00
        6  1    1    2  501    0 +8.1074600051e+00 -6.0292586625e+01 -6.4970245457e+01 1.9455348803e+02 1.7300000000e+02 0.0000e+00 -1.0000e+00
       -6  1    1    2    0  505 -8.4557698438e+01 +1.0585407984e+02 -5.5632728938e+01 2.2666956371e+02 1.7300000000e+02 0.0000e+00 -1.0000e+00
       21  1    1    2  504  501 +5.0405515780e+01 -5.7738212325e+01 -2.3929603794e+02 2.5127079209e+02 0.0000000000e+00 0.0000e+00 1.0000e+00
       21  1    1    2  505  503 +2.6044722653e+01 +1.2176719111e+01 -6.1494482603e+01 6.7883513882e+01 0.0000000000e+00 0.0000e+00 -1.0000e+00
<mgrwt>
<rscale>  4 0.19665287E+03</rscale>
<asrwt>0</asrwt>
<pdfrwt beam="1">  1       21 0.24537220E-01 0.19665287E+03</pdfrwt>
<pdfrwt beam="2">  1       21 0.89366991E-01 0.19665287E+03</pdfrwt>
<totfact> 0.16719247E+04</totfact>
</mgrwt>
</event>
<event>
 6      1 +2.5168323e+02 1.81355000e+02 7.54677100e-03 1.11471900e-01
       21 -1    0    0  503  502 +0.0000000000e+00 +0.0000000000e+00 +8.3273081954e+02 8.3273081954e+02 0.0000000000e+00 0.0000e+00 -1.0000e+00
       21 -1    0    0  501  503 -0.0000000000e+00 -0.0000000000e+00 -3.6090641727e+02 3.6090641727e+02 0.0000000000e+00 0.0000e+00 -1.0000e+00
        6  1    1    2  501    0 -2.4148973164e+01 +8.5920049205e+01 -4.1929673396e+01 1.9912941840e+02 1.7300000000e+02 0.0000e+00 -1.0000e+00
       -6  1    1    2    0  504 -9.9183865434e+01 -2.1849674429e+01 -1.5521756840e+02 2.5364609395e+02 1.7300000000e+02 0.0000e+00 1.0000e+00
       21  1    1    2  504  505 +6.0623859874e+01 +3.2555298951e+01 +7.2546586552e+00 6.9193424167e+01 0.0000000000e+00 0.0000e+00 -1.0000e+00
       21  1    1    2  505  502 +6.2708978724e+01 -9.6625673728e+01 +6.6171698541e+02 6.7166830029e+02 0.0000000000e+00 0.0000e+00 -1.0000e+00
<mgrwt>
<rscale>  4 0.18135495E+03</rscale>
<asrwt>0</asrwt>
<pdfrwt beam="1">  1       21 0.12811243E+00 0.18135495E+03</pdfrwt>
<pdfrwt beam="2">  1       21 0.55524064E-01 0.18135495E+03</pdfrwt>
<totfact> 0.13867398E+03</totfact>
</mgrwt>
</event>
<event>
 6      1 +2.5168323e+02 1.77328700e+02 7.54677100e-03 1.16820100e-01
       21 -1    0    0  501  502 +0.0000000000e+00 +0.0000000000e+00 +4.1973969190e+02 4.1973969190e+02 0.0000000000e+00 0.0000e+00 -1.0000e+00
       21 -1    0    0  504  503 -0.0000000000e+00 -0.0000000000e+00 -1.4942703002e+02 1.4942703002e+02 0.0000000000e+00 0.0000e+00 -1.0000e+00
        6  1    1    2  501    0 -5.8677638905e+00 +3.7411630992e+01 +1.6771333877e+02 2.4390741028e+02 1.7300000000e+02 0.0000e+00 -1.0000e+00
       -6  1    1    2    0  503 -5.6943217145e+01 -1.1740149053e+01 +8.7858806042e+01 2.0255500704e+02 1.7300000000e+02 0.0000e+00 -1.0000e+00
       21  1    1    2  504  505 +2.3512094766e+01 -3.6005809554e+01 -3.7128582011e+01 5.6813453724e+01 0.0000000000e+00 0.0000e+00 -1.0000e+00
       21  1    1    2  505  502 +3.9298886269e+01 +1.0334327615e+01 +5.1869099073e+01 6.5890850867e+01 0.0000000000e+00 0.0000e+00 1.0000e+00
<mgrwt>
<rscale>  4 0.17732868E+03</rscale>
<asrwt>0</asrwt>
<pdfrwt beam="1">  1       21 0.64575337E-01 0.17732868E+03</pdfrwt>
<pdfrwt beam="2">  1       21 0.22988774E-01 0.17732868E+03</pdfrwt>
<totfact> 0.39582564E+04</totfact>
</mgrwt>
</event>
<event>
 6      1 +2.5168323e+02 2.01495500e+02 7.54677100e-03 1.16820100e-01
       21 -1    0    0  504  502 +0.0000000000e+00 +0.0000000000e+00 +7.3104585676e+02 7.3104585676e+02 0.0000000000e+00 0.0000e+00 1.0000e+00
       21 -1    0    0  501  503 -0.0000000000e+00 -0.0000000000e+00 -1.8373386472e+02 1.8373386472e+02 0.0000000000e+00 0.0000e+00 1.0000e+00
        6  1    1    2  501    0 +9.3340730067e+01 -3.2872463210e+01 -6.7062144431e+00 1.9941680982e+02 1.7300000000e+02 0.0000e+00 1.0000e+00
       -6  1    1    2    0  505 -3.9681000697e+01 +1.1419924635e+02 +1.2846206854e+02 2.4707802965e+02 1.7300000000e+02 0.0000e+00 -1.0000e+00
       21  1    1    2  504  503 +8.1314593445e+00 -2.9206579865e+01 -4.5421886070e+00 3.0655772960e+01 0.0000000000e+00 0.0000e+00 -1.0000e+00
       21  1    1    2  505  502 -6.1791188714e+01 -5.2120203271e+01 +4.3009832655e+02 4.3762910905e+02 0.0000000000e+00 0.0000e+00 1.0000e+00
<mgrwt>
<rscale>  4 0.20149548E+03</rscale>
<asrwt>0</asrwt>
<pdfrwt beam="1">  1       21 0.11246859E+00 0.20149548E+03</pdfrwt>
<pdfrwt beam="2">  1       21 0.28266749E-01 0.20149548E+03</pdfrwt>
<totfact> 0.73540517E+03</totfact>
</mgrwt>
</event>
<event>
 6      1 +2.5168323e+02 1.94901600e+02 7.54677100e-03 1.16820100e-01
       21 -1    0    0  503  502 +0.0000000000e+00 +0.0000000000e+00 +3.7331804000e+02 3.7331804000e+02 0.0000000000e+00 0.0000e+00 1.0000e+00
       21 -1    0    0  501  503 -0.0000000000e+00 -0.0000000000e+00 -3.8456013763e+02 3.8456013763e+02 0.0000000000e+00 0.0000e+00 1.0000e+00
        6  1    1    2  501    0 -1.0514821369e+02 -4.0029081490e+01 +8.6880291037e+01 2.2390993542e+02 1.7300000000e+02 0.0000e+00 1.0000e+00
       -6  1    1    2    0  504 -2.6745912883e+00 -1.6809529653e+02 -9.2388980120e+01 2.5831745160e+02 1.7300000000e+02 0.0000e+00 1.0000e+00
       21  1    1    2  504  505 -1.8282038780e+01 +7.3245529374e+01 -4.3574144733e+01 8.7165627426e+01 0.0000000000e+00 0.0000e+00 1.0000e+00
       21  1    1    2  505  502 +1.2610484376e+02 +1.3487884864e+02 +3.7840736187e+01 1.8848516320e+02 0.0000000000e+00 0.0000e+00 1.0000e+00
<mgrwt>
<rscale>  4 0.19408993E+03</rscale>
<asrwt>0</asrwt>
<pdfrwt beam="1">  1       21 0.57433545E-01 0.19490157E+03</pdfrwt>
<pdfrwt beam="2">  1       21 0.59163098E-01 0.19490157E+03</pdfrwt>
<totfact> 0.75860257E+03</totfact>
</mgrwt>
</event>
<event>
 6      1 +2.5168323e+02 2.34860500e+02 7.54677100e-03 1.07064900e-01
       21 -1    0    0  504  502 +0.0000000000e+00 +0.0000000000e+00 +1.4037452205e+02 1.4037452205e+02 0.0000000000e+00 0.0000e+00 -1.0000e+00
       21 -1    0    0  501  503 -0.0000000000e+00 -0.0000000000e+00 -1.8624740946e+03 1.8624740946e+03 0.0000000000e+00 0.0000e+00 -1.0000e+00
        6  1    1    2  501    0 +7.3617052304e+01 +1.1168555932e+02 -7.3681008118e+02 7.6857740682e+02 1.7300000000e+02 0.0000e+00 -1.0000e+00
       -6  1    1    2    0  505 -3.1442084887e+01 -1.8744711682e+02 -1.0473605386e+03 1.0784331802e+03 1.7300000000e+02 0.0000e+00 -1.0000e+00
       21  1    1    2  504  503 -4.8969756902e+01 +9.9078896747e+01 +2.8026508267e+01 1.1401820047e+02 0.0000000000e+00 0.0000e+00 -1.0000e+00
       21  1    1    2  505  502 +6.7947894849e+00 -2.3317339248e+01 +3.4044538996e+01 4.1819829139e+01 0.0000000000e+00 0.0000e+00 1.0000e+00
<mgrwt>
<rscale>  4 0.23486049E+03</rscale>
<asrwt>0</asrwt>
<pdfrwt beam="1">  1       21 0.21596081E-01 0.23486049E+03</pdfrwt>
<pdfrwt beam="2">  1       21 0.28653446E+00 0.23486049E+03</pdfrwt>
<totfact> 0.77411343E+02</totfact>
</mgrwt>
</event>
<event>
 6      1 +2.5168323e+02 1.85837400e+02 7.54677100e-03 1.17132900e-01
       21 -1    0    0  505  502 +0.0000000000e+00 +0.0000000000e+00 +8.9835565099e+02 8.9835565099e+02 0.0000000000e+00 0.0000e+00 -1.0000e+00
       21 -1    0    0  504  503 -0.0000000000e+00 -0.0000000000e+00 -3.2151684635e+02 3.2151684635e+02 0.0000000000e+00 0.0000e+00 1.0000e+00
        6  1    1    2  501    0 -2.8176486057e+01 -4.3255361619e+00 +6.7000043073e+01 1.8769824294e+02 1.7300000000e+02 0.0000e+00 1.0000e+00
       -6  1    1    2    0  502 -8.3194132338e+01 -1.3868920702e+02 +4.9810947577e+01 2.4200431876e+02 1.7300000000e+02 0.0000e+00 1.0000e+00
       21  1    1    2  504  501 +1.0469617390e+02 -5.0015676212e+00 -1.3843458525e+02 1.7363881738e+02 0.0000000000e+00 0.0000e+00 1.0000e+00
       21  1    1    2  505  503 +6.6744444970e+00 +1.4801631081e+02 +5.9846239925e+02 6.1653111826e+02 0.0000000000e+00 0.0000e+00 -1.0000e+00
<mgrwt>
<rscale>  4 0.18583742E+03</rscale>
<asrwt>0</asrwt>
<pdfrwt beam="1">  1       21 0.13820856E+00 0.18583742E+03</pdfrwt>
<pdfrwt beam="2">  1       21 0.49464131E-01 0.18583742E+03</pdfrwt>
<totfact> 0.14514263E+03</totfact>
</mgrwt>
</event>
<event>
 6      1 +2.5168323e+02 2.04208500e+02 7.54677100e-03 1.17132900e-01
       21 -1    0    0  505  502 +0.0000000000e+00 +0.0000000000e+00 +9.5815483758e+02 9.5815483758e+02 0.0000000000e+00 0.0000e+00 1.0000e+00
       21 -1    0    0  504  503 -0.0000000000e+00 -0.0000000000e+00 -1.1816824617e+02 1.1816824617e+02 0.0000000000e+00 0.0000e+00 1.0000e+00
        6  1    1    2  501    0 +2.7456018903e+01 +3.1794299615e+01 +1.8340022415e+02 2.5559607329e+02 1.7300000000e+02 0.0000e+00 1.0000e+00
       -6  1    1    2    0  502 -1.5501030278e+02 -8.2407739118e+00 +6.0127415736e+02 6.4463611179e+02 1.7300000000e+02 0.0000e+00 1.0000e+00
       21  1    1    2  504  501 +2.1973120472e+01 -2.8012892334e+00 -3.1033867710e+01 3.8128285953e+01 0.0000000000e+00 0.0000e+00 -1.0000e+00
       21  1    1    2  505  503 +1.0558116341e+02 -2.0752236470e+01 +8.6346077614e+01 1.3796261271e+02 0.0000000000e+00 0.0000e+00 1.0000e+00
<mgrwt>
<rscale>  4 0.20420854E+03</rscale>
<asrwt>0</asrwt>
<pdfrwt beam="1">  1       21 0.14740843E+00 0.20420854E+03</pdfrwt>
<pdfrwt beam="2">  1       21 0.18179731E-01 0.20420854E+03</pdfrwt>
<totfact> 0.85485809E+03</totfact>
</mgrwt>
</event>
<event>
 6      1 +2.5168323e+02 3.24297600e+02 7.54677100e-03 1.11471900e-01
       21 -1    0    0  503  502 +0.0000000000e+00 +0.0000000000e+00 +1.6537185312e+02 1.6537185312e+02 0.0000000000e+00 0.0000e+00 -1.0000e+00
       21 -1    0    0  501  503 -0.0000000000e+00 -0.0000000000e+00 -1.0808894077e+03 1.0808894077e+03 0.0000000000e+00 0.0000e+00 -1.0000e+00
        6  1    1    2  501    0 +1.8571769373e+02 -8.9901316575e+01 -1.3121281121e+02 2.9953148468e+02 1.7300000000e+02 0.0000e+00 -1.0000e+00
       -6  1    1    2    0  504 -2.7779792183e+02 +1.1136826034e+02 -6.7635630765e+02 7.5957977177e+02 1.7300000000e+02 0.0000e+00 -1.0000e+00
       21  1    1    2  504  505 -1.8086372046e+01 +1.8128910189e+01 -5.0777570477e+01 5.6869463704e+01 0.0000000000e+00 0.0000e+00 -1.0000e+00
       21  1    1    2  505  502 +1.1016660014e+02 -3.9595853954e+01 -5.7170865205e+01 1.3028054062e+02 0.0000000000e+00 0.0000e+00 -1.0000e+00
<mgrwt>
<rscale>  4 0.32429760E+03</rscale>
<asrwt>0</asrwt>
<pdfrwt beam="1">  1       21 0.25441822E-01 0.32429760E+03</pdfrwt>
<pdfrwt beam="2">  1       21 0.16629069E+00 0.32429760E+03</pdfrwt>
<totfact> 0.30217953E+03</totfact>
</mgrwt>
</event>
<event>
 6      1 +2.5168323e+02 1.88934100e+02 7.54677100e-03 1.07240600e-01
       21 -1    0    0  505  502 +0.0000000000e+00 +0.0000000000e+00 +1.4725381590e+02 1.4725381590e+02 0.0000000000e+00 0.0000e+00 1.0000e+00
       21 -1    0    0  504  503 -0.0000000000e+00 -0.0000000000e+00 -1.2331699801e+03 1.2331699801e+03 0.0000000000e+00 0.0000e+00 -1.0000e+00
        6  1    1    2  501    0 +4.9222991125e+01 -3.6621243854e+01 -3.1417887152e+01 1.8622594339e+02 1.7300000000e+02 0.0000e+00 1.0000e+00
       -6  1    1    2    0  502 -1.4394734158e+01 +1.1432056972e+02 -1.0451740934e+02 2.3265702200e+02 1.7300000000e+02 0.0000e+00 1.0000e+00
       21  1    1    2  504  501 -2.7911289175e+01 -4.7895820610e+00 -4.2266051265e+01 5.0876313244e+01 0.0000000000e+00 0.0000e+00 -1.0000e+00
       21  1    1    2  505  503 -6.9169677913e+00 -7.2909743809e+01 -9.0771481648e+02 9.1066451739e+02 0.0000000000e+00 0.0000e+00 -1.0000e+00
<mgrwt>
<rscale>  4 0.18893415E+03</rscale>
<asrwt>0</asrwt>
<pdfrwt beam="1">  1       21 0.22654434E-01 0.18893415E+03</pdfrwt>
<pdfrwt beam="2">  1       21 0.18971845E+00 0.18893415E+03</pdfrwt>
<totfact> 0.28713738E+03</totfact>
</mgrwt>
</event>
<event>
 6      1 +2.5168323e+02 2.26049400e+02 7.54677100e-03 1.11910500e-01
       21 -1    0    0  501  502 +0.0000000000e+00 +0.0000000000e+00 +2.4896108331e+03 2.4896108331e+03 0.0000000000e+00 0.0000e+00 -1.0000e+00
       21 -1    0    0  505  503 -0.0000000000e+00 -0.0000000000e+00 -1.1008934763e+02 1.1008934763e+02 0.0000000000e+00 0.0000e+00 -1.0000e+00
        6  1    1    2  501    0 -4.5546666983e+01 +1.7377294015e+02 +2.3933200158e+02 3.4565928395e+02 1.7300000000e+02 0.0000e+00 -1.0000e+00
       -6  1    1    2    0  504 -6.5050644240e-01 -1.4236217926e+02 +2.1632019241e+03 2.1747733163e+03 1.7300000000e+02 0.0000e+00 -1.0000e+00
       21  1    1    2  504  503 +9.1707706852e+00 -3.4175075694e+01 -2.2881518520e+01 4.2137901270e+01 0.0000000000e+00 0.0000e+00 -1.0000e+00
       21  1    1    2  505  502 +3.7026402740e+01 +2.7643147984e+00 -1.3092162802e-01 3.7129679189e+01 0.0000000000e+00 0.0000e+00 1.0000e+00
<mgrwt>
<rscale>  4 0.22604943E+03</rscale>
<asrwt>0</asrwt>
<pdfrwt beam="1">  1       21 0.38301701E+00 0.22604943E+03</pdfrwt>
<pdfrwt beam="2">  1       21 0.16936825E-01 0.22604943E+03</pdfrwt>
<totfact> 0.33079540E+02</totfact>
</mgrwt>
</event>
<event>
 6      1 +2.5168323e+02 2.18700800e+02 7.54677100e-03 1.17132900e-01
       21 -1    0    0  505  502 +0.0000000000e+00 +0.0000000000e+00 +1.2821000353e+02 1.2821000353e+02 0.0000000000e+00 0.0000e+00 1.0000e+00
       21 -1    0    0  504  503 -0.0000000000e+00 -0.0000000000e+00 -8.3627080295e+02 8.3627080295e+02 0.0000000000e+00 0.0000e+00 1.0000e+00
        6  1    1    2  501    0 -8.3032277593e+01 -9.7427848540e+01 -2.3682256761e+02 3.2000073957e+02 1.7300000000e+02 0.0000e+00 -1.0000e+00
       -6  1    1    2    0  502 +1.7931761463e+02 -2.9035522167e+01 -2.5948013643e+02 3.6091108277e+02 1.7300000000e+02 0.0000e+00 1.0000e+00
       21  1    1    2  504  501 -2.3197657267e+01 +1.7773210099e+01 -1.2035182749e+02 1.2384902373e+02 0.0000000000e+00 0.0000e+00 1.0000e+00
       21  1    1    2  505  503 -7.3087679766e+01 +1.0869016061e+02 -9.1406267892e+01 1.5971996042e+02 0.0000000000e+00 0.0000e+00 1.0000e+00
<mgrwt>
<rscale>  4 0.21870080E+03</rscale>
<asrwt>0</asrwt>
<pdfrwt beam="1">  1       21 0.19724616E-01 0.21870080E+03</pdfrwt>
<pdfrwt beam="2">  1       21 0.12865705E+00 0.21870080E+03</pdfrwt>
<totfact> 0.10319726E+04</totfact>
</mgrwt>
</event>
<event>
 6      1 +2.5168323e+02 1.73815600e+02 7.54677100e-03 1.12989000e-01
       21 -1    0    0  503  502 +0.0000000000e+00 +0.0000000000e+00 +7.4728959543e+02 7.4728959543e+02 0.0000000000e+00 0.0000e+00 1.0000e+00
       21 -1    0    0  505  503 -0.0000000000e+00 -0.0000000000e+00 -1.7958264891e+02 1.7958264891e+02 0.0000000000e+00 0.0000e+00 1.0000e+00
        6  1    1    2  501    0 -1.2771901262e+01 -6.8602054749e+01 +3.5390895574e+02 4.0006238555e+02 1.7300000000e+02 0.0000e+00 1.0000e+00
       -6  1    1    2    0  502 +1.9387339588e+01 -6.5323762671e+01 +3.0763737980e+02 3.5946184826e+02 1.7300000000e+02 0.0000e+00 1.0000e+00
       21  1    1    2  504  501 -1.8509879688e+01 +1.1271142501e+02 -7.6280470003e+01 1.3735061368e+02 0.0000000000e+00 0.0000e+00 1.0000e+00
       21  1    1    2  505  504 +1.1894441363e+01 +2.1214392412e+01 -1.7558919023e+01 2.9997396854e+01 0.0000000000e+00 0.0000e+00 1.0000e+00
<mgrwt>
<rscale>  4 0.17381556E+03</rscale>
<asrwt>0</asrwt>
<pdfrwt beam="1">  1       21 0.11496763E+00 0.17381556E+03</pdfrwt>
<pdfrwt beam="2">  1       21 0.27628100E-01 0.17381556E+03</pdfrwt>
<totfact> 0.74426352E+03</totfact>
</mgrwt>
</event>
<event>
 6      1 +2.5168323e+02 1.82143400e+02 7.54677100e-03 1.12068800e-01
       21 -1    0    0  504  502 +0.0000000000e+00 +0.0000000000e+00 +9.3325659327e+02 9.3325659327e+02 0.0000000000e+00 0.0000e+00 1.0000e+00
       21 -1    0    0  502  503 -0.0000000000e+00 -0.0000000000e+00 -4.0654563756e+02 4.0654563756e+02 0.0000000000e+00 0.0000e+00 1.0000e+00
        6  1    1    2  501    0 +4.9696677897e+01 -1.9812387816e+01 +6.1201101377e+02 6.3823880443e+02 1.7300000000e+02 0.0000e+00 1.0000e+00
       -6  1    1    2    0  505 -6.1567070564e+01 +2.0325794136e+01 +2.6232850901e+02 3.2085649241e+02 1.7300000000e+02 0.0000e+00 -1.0000e+00
       21  1    1    2  504  501 +2.2079025750e+01 -5.3678961638e+01 -4.5457135709e+01 7.3724253048e+01 0.0000000000e+00 0.0000e+00 1.0000e+00
       21  1    1    2  505  503 -1.0208633083e+01 +5.3165555318e+01 -3.0217143136e+02 3.0698268094e+02 0.0000000000e+00 0.0000e+00 1.0000e+00
<mgrwt>
<rscale>  4 0.18214337E+03</rscale>
<asrwt>0</asrwt>
<pdfrwt beam="1">  1       21 0.14357794E+00 0.18214337E+03</pdfrwt>
<pdfrwt beam="2">  1       21 0.62545483E-01 0.18214337E+03</pdfrwt>
<totfact> 0.80332098E+02</totfact>
</mgrwt>
</event>
<event>
 6      1 +2.5168323e+02 2.28357700e+02 7.54677100e-03 1.16820100e-01
       21 -1    0    0  504  502 +0.0000000000e+00 +0.0000000000e+00 +3.7494697818e+02 3.7494697818e+02 0.0000000000e+00 0.0000e+00 -1.0000e+00
       21 -1    0    0  501  503 -0.0000000000e+00 -0.0000000000e+00 -9.5145923996e+02 9.5145923996e+02 0.0000000000e+00 0.0000e+00 -1.0000e+00
        6  1    1    2  501    0 -1.6703916279e+02 +5.9329427019e+01 -3.9980649656e+02 4.7031510448e+02 1.7300000000e+02 0.0000e+00 -1.0000e+00
       -6  1    1    2    0  505 +1.0786970900e+02 -1.4064078373e+01 -1.1879116350e+02 2.3637684520e+02 1.7300000000e+02 0.0000e+00 -1.0000e+00
       21  1    1    2  504  503 -2.9969014356e-02 -2.7067890890e+01 -3.3484787914e+02 3.3594013422e+02 0.0000000000e+00 0.0000e+00 -1.0000e+00
       21  1    1    2  505  502 +5.9199422798e+01 -1.8197457755e+01 +2.7693327741e+02 2.8377413425e+02 0.0000000000e+00 0.0000e+00 -1.0000e+00
<mgrwt>
<rscale>  4 0.22835772E+03</rscale>
<asrwt>0</asrwt>
<pdfrwt beam="1">  1       21 0.57684151E-01 0.22835772E+03</pdfrwt>
<pdfrwt beam="2">  1       21 0.14637834E+00 0.22835772E+03</pdfrwt>
<totfact> 0.86698184E+02</totfact>
</mgrwt>
</event>
<event>
 6      1 +2.5168323e+02 2.45530100e+02 7.54677100e-03 1.16820100e-01
       21 -1    0    0  501  502 +0.0000000000e+00 +0.0000000000e+00 +6.7667248967e+02 6.7667248967e+02 0.0000000000e+00 0.0000e+00 -1.0000e+00
       21 -1    0    0  504  503 -0.0000000000e+00 -0.0000000000e+00 -2.0996035680e+02 2.0996035680e+02 0.0000000000e+00 0.0000e+00 -1.0000e+00
        6  1    1    2  501    0 +6.3853996643e+01 +1.5889573972e+02 +7.7571792656e+01 2.5548301706e+02 1.7300000000e+02 0.0000e+00 -1.0000e+00
       -6  1    1    2    0  503 +3.0862383693e+01 -1.8692752663e+02 +4.8700720075e+01 2.6114200557e+02 1.7300000000e+02 0.0000e+00 -1.0000e+00
       21  1    1    2  504  505 -2.3613778574e+01 -6.6097718920e+00 +4.5603184184e+00 2.4941854925e+01 0.0000000000e+00 0.0000e+00 -1.0000e+00
       21  1    1    2  505  502 -7.1102601762e+01 +3.4641558798e+01 +3.3587930173e+02 3.4506596891e+02 0.0000000000e+00 0.0000e+00 -1.0000e+00
<mgrwt>
<rscale>  4 0.24553009E+03</rscale>
<asrwt>0</asrwt>
<pdfrwt beam="1">  1       21 0.10410346E+00 0.24553009E+03</pdfrwt>
<pdfrwt beam="2">  1       21 0.32301594E-01 0.24553009E+03</pdfrwt>
<totfact> 0.66296922E+03</totfact>
</mgrwt>
</event>
<event>
 6      1 +2.5168323e+02 2.34289400e+02 7.54677100e-03 1.07240600e-01
       21 -1    0    0  505  502 +0.0000000000e+00 +0.0000000000e+00 +7.3426474938e+01 7.3426474938e+01 0.0000000000e+00 0.0000e+00 1.0000e+00
       21 -1    0    0  504  503 -0.0000000000e+00 -0.0000000000e+00 -1.3627181363e+03 1.3627181363e+03 0.0000000000e+00 0.0000e+00 1.0000e+00
        6  1    1    2  501    0 +9.3757097542e+01 +1.3096291603e+02 -6.6705757915e+02 7.0769802361e+02 1.7300000000e+02 0.0000e+00 1.0000e+00
       -6  1    1    2    0  502 -1.3067027537e+02 -1.2265929045e+02 -2.9570651108e+02 3.8664112959e+02 1.7300000000e+02 0.0000e+00 1.0000e+00
       21  1    1    2  504  501 +5.2752490895e+01 +7.2210492304e+00 -9.2502795191e+01 1.0673207562e+02 0.0000000000e+00 0.0000e+00 1.0000e+00
       21  1    1    2  505  503 -1.5839313065e+01 -1.5524674815e+01 -2.3402477590e+02 2.3507338237e+02 0.0000000000e+00 0.0000e+00 1.0000e+00
<mgrwt>
<rscale>  4 0.23428944E+03</rscale>
<asrwt>0</asrwt>
<pdfrwt beam="1">  1       21 0.11296381E-01 0.23428944E+03</pdfrwt>
<pdfrwt beam="2">  1       21 0.20964894E+00 0.23428944E+03</pdfrwt>
<totfact> 0.73624507E+03</totfact>
</mgrwt>
</event>
<event>
 6      1 +2.5168323e+02 2.15251800e+02 7.54677100e-03 1.07240600e-01
       21 -1    0    0  505  502 +0.0000000000e+00 +0.0000000000e+00 +1.9094547148e+02 1.9094547148e+02 0.0000000000e+00 0.0000e+00 -1.0000e+00
       21 -1    0    0  504  503 -0.0000000000e+00 -0.0000000000e+00 -2.2726272365e+03 2.2726272365e+03 0.0000000000e+00 0.0000e+00 -1.0000e+00
        6  1    1    2  501    0 -1.0206218897e+02 -6.0794970121e+01 -1.3117413683e+02 2.4748408632e+02 1.7300000000e+02 0.0000e+00 -1.0000e+00
       -6  1    1    2    0  502 +1.0045185400e+02 +6.5111328074e+01 +4.0978813438e+01 2.1433227281e+02 1.7300000000e+02 0.0000e+00 -1.0000e+00
       21  1    1    2  504  501 +2.2758356680e+01 +1.9985907364e+01 -4.0849133846e+01 5.0853033616e+01 0.0000000000e+00 0.0000e+00 -1.0000e+00
       21  1    1    2  505  503 -2.1148021713e+01 -2.4302265317e+01 -1.9506373078e+03 1.9509033152e+03 0.0000000000e+00 0.0000e+00 -1.0000e+00
<mgrwt>
<rscale>  4 0.21525183E+03</rscale>
<asrwt>0</asrwt>
<pdfrwt beam="1">  1       21 0.29376223E-01 0.21525183E+03</pdfrwt>
<pdfrwt beam="2">  1       21 0.34963500E+00 0.21525183E+03</pdfrwt>
<totfact> 0.18824941E+02</totfact>
</mgrwt>
</event>
<event>
 6      1 +2.5168323e+02 2.42028400e+02 7.54677100e-03 1.06249800e-01
       21 -1    0    0  505  502 +0.0000000000e+00 +0.0000000000e+00 +5.3798500073e+02 5.3798500073e+02 0.0000000000e+00 0.0000e+00 1.0000e+00
       21 -1    0    0  501  503 -0.0000000000e+00 -0.0000000000e+00 -2.2153510002e+02 2.2153510002e+02 0.0000000000e+00 0.0000e+00 1.0000e+00
        6  1    1    2  501    0 +1.6413599686e+02 +1.4013331799e+02 +4.6090804995e+01 2.8041279318e+02 1.7300000000e+02 0.0000e+00 1.0000e+00
       -6  1    1    2    0  502 -1.0016075858e+02 -5.2637300427e+01 +1.5120365814e+02 2.5611405504e+02 1.7300000000e+02 0.0000e+00 1.0000e+00
       21  1    1    2  504  503 -1.2189777171e+01 +4.4579975720e+01 +3.5718125172e+01 5.8410182061e+01 0.0000000000e+00 0.0000e+00 1.0000e+00
       21  1    1    2  505  504 -5.1785461106e+01 -1.3207599328e+02 +8.3437312399e+01 1.6458307047e+02 0.0000000000e+00 0.0000e+00 1.0000e+00
<mgrwt>
<rscale>  4 0.24202837E+03</rscale>
<asrwt>0</asrwt>
<pdfrwt beam="1">  1       21 0.82766923E-01 0.24202837E+03</pdfrwt>
<pdfrwt beam="2">  1       21 0.34082323E-01 0.24202837E+03</pdfrwt>
<totfact> 0.10234362E+04</totfact>
</mgrwt>
</event>
<event>
 6      1 +2.5168323e+02 2.84477300e+02 7.54677100e-03 1.17132900e-01
       21 -1    0    0  505  502 +0.0000000000e+00 +0.0000000000e+00 +1.8198926865e+03 1.8198926865e+03 0.0000000000e+00 0.0000e+00 -1.0000e+00
       21 -1    0    0  504  503 -0.0000000000e+00 -0.0000000000e+00 -3.8174567909e+02 3.8174567909e+02 0.0000000000e+00 0.0000e+00 -1.0000e+00
        6  1    1    2  501    0 +3.6994322895e+02 +3.3692370731e+01 +2.7587119577e+02 4.9399097679e+02 1.7300000000e+02 0.0000e+00 -1.0000e+00
       -6  1    1    2    0  502 -1.6005797492e+02 -7.5877366931e+01 -1.5191509102e+02 2.9048773645e+02 1.7300000000e+02 0.0000e+00 1.0000e+00
       21  1    1    2  504  501 -1.9692940597e+01 -3.7272178895e+01 -3.3470324350e+01 5.3826478995e+01 0.0000000000e+00 0.0000e+00 -1.0000e+00
       21  1    1    2  505  503 -1.9019231343e+02 +7.9457175094e+01 +1.3476612270e+03 1.3633331733e+03 0.0000000000e+00 0.0000e+00 -1.0000e+00
<mgrwt>
<rscale>  4 0.28447726E+03</rscale>
<asrwt>0</asrwt>
<pdfrwt beam="1">  1       21 0.27998349E+00 0.28447726E+03</pdfrwt>
<pdfrwt beam="2">  1       21 0.58730105E-01 0.28447726E+03</pdfrwt>
<totfact> 0.10721928E+02</totfact>
</mgrwt>
</event>
<event>
 6      1 +2.5168323e+02 1.75731600e+02 7.54677100e-03 1.16584500e-01
       21 -1    0    0  504  502 +0.0000000000e+00 +0.0000000000e+00 +2.2986053947e+02 2.2986053947e+02 0.0000000000e+00 0.0000e+00 1.0000e+00
       21 -1    0    0  501  503 -0.0000000000e+00 -0.0000000000e+00 -2.7330209981e+03 2.7330209981e+03 0.0000000000e+00 0.0000e+00 1.0000e+00
        6  1    1    2  501    0 +2.8251186817e+01 +2.8213925326e+01 -1.5829268316e+03 1.5928529465e+03 1.7300000000e+02 0.0000e+00 -1.0000e+00
       -6  1    1    2    0  505 +1.4822692997e+02 -3.8037958109e+00 -1.0411612540e+03 1.0658008484e+03 1.7300000000e+02 0.0000e+00 1.0000e+00
       21  1    1    2  504  503 -1.6699437113e+02 -4.4736948851e+01 -8.2862943140e+00 1.7308141799e+02 0.0000000000e+00 0.0000e+00 -1.0000e+00
       21  1    1    2  505  502 -9.4837456551e+00 +2.0326819336e+01 +1.2921392127e+02 1.3114632464e+02 0.0000000000e+00 0.0000e+00 1.0000e+00
<mgrwt>
<rscale>  4 0.17573163E+03</rscale>
<asrwt>0</asrwt>
<pdfrwt beam="1">  1       21 0.35363160E-01 0.17573163E+03</pdfrwt>
<pdfrwt beam="2">  1       21 0.42046477E+00 0.17573163E+03</pdfrwt>
<totfact> 0.51686079E+01</totfact>
</mgrwt>
</event>
<event>
 6      1 +2.5168323e+02 1.84822300e+02 7.54677100e-03 1.11671100e-01
       21 -1    0    0  503  502 +0.0000000000e+00 +0.0000000000e+00 +3.3514950811e+01 3.3514950811e+01 0.0000000000e+00 0.0000e+00 -1.0000e+00
       21 -1    0    0  501  503 -0.0000000000e+00 -0.0000000000e+00 -2.0347893472e+03 2.0347893472e+03 0.0000000000e+00 0.0000e+00 -1.0000e+00
        6  1    1    2  501    0 -2.4273464538e+01 -7.9822281342e+01 -1.3849881417e+03 1.3982424505e+03 1.7300000000e+02 0.0000e+00 -1.0000e+00
       -6  1    1    2    0  504 +7.7303195640e-02 +2.5886328766e+01 -5.1471491145e+02 5.4362721424e+02 1.7300000000e+02 0.0000e+00 -1.0000e+00
       21  1    1    2  504  505 +2.1324325508e+00 +3.0317093477e+01 -8.4673821082e+01 8.9962933490e+01 0.0000000000e+00 0.0000e+00 -1.0000e+00
       21  1    1    2  505  502 +2.2063728792e+01 +2.3618859099e+01 -1.6897522210e+01 3.6471699853e+01 0.0000000000e+00 0.0000e+00 -1.0000e+00
<mgrwt>
<rscale>  4 0.18482225E+03</rscale>
<asrwt>0</asrwt>
<pdfrwt beam="1">  1       21 0.51561455E-02 0.18482225E+03</pdfrwt>
<pdfrwt beam="2">  1       21 0.31304456E+00 0.18482225E+03</pdfrwt>
<totfact> 0.73976507E+03</totfact>
</mgrwt>
</event>
<event>
 6      1 +2.5168323e+02 1.74389500e+02 7.54677100e-03 1.07064900e-01
       21 -1    0    0  501  502 +0.0000000000e+00 +0.0000000000e+00 +2.1724807960e+03 2.1724807960e+03 0.0000000000e+00 0.0000e+00 -1.0000e+00
       21 -1    0    0  504  503 -0.0000000000e+00 -0.0000000000e+00 -1.0611296673e+02 1.0611296673e+02 0.0000000000e+00 0.0000e+00 -1.0000e+00
        6  1    1    2  501    0 +5.2506073552e+01 +4.0497682509e+01 +3.9888342394e+02 4.3981125035e+02 1.7300000000e+02 0.0000e+00 -1.0000e+00
       -6  1    1    2    0  503 -6.3277757846e-01 -1.5332625269e+01 +3.4885377387e+00 1.7371430482e+02 1.7300000000e+02 0.0000e+00 -1.0000e+00
       21  1    1    2  504  505 -2.9125695421e+01 -1.5994211059e+01 +7.3813675133e+02 7.3888428363e+02 0.0000000000e+00 0.0000e+00 -1.0000e+00
       21  1    1    2  505  502 -2.2747600553e+01 -9.1708461819e+00 +9.2585911623e+02 9.2618392388e+02 0.0000000000e+00 0.0000e+00 1.0000e+00
<mgrwt>
<rscale>  4 0.17438947E+03</rscale>
<asrwt>0</asrwt>
<pdfrwt beam="1">  1       21 0.33422778E+00 0.17438947E+03</pdfrwt>
<pdfrwt beam="2">  1       21 0.16325073E-01 0.17438947E+03</pdfrwt>
<totfact> 0.74802034E+02</totfact>
</mgrwt>
</event>
<event>
 6      1 +2.5168323e+02 1.73044500e+02 7.54677100e-03 1.16820100e-01
       21 -1    0    0  504  502 +0.0000000000e+00 +0.0000000000e+00 +1.0954594027e+03 1.0954594027e+03 0.0000000000e+00 0.0000e+00 -1.0000e+00
       21 -1    0    0  501  503 -0.0000000000e+00 -0.0000000000e+00 -5.4295705338e+02 5.4295705338e+02 0.0000000000e+00 0.0000e+00 -1.0000e+00
        6  1    1    2  501    0 -3.5135212374e+01 -4.6991080090e+01 +1.3690184009e+02 2.2828438093e+02 1.7300000000e+02 0.0000e+00 1.0000e+00
       -6  1    1    2    0  505 -4.9939023577e+01 -4.6682495274e+01 +1.8295616635e+02 2.6091209295e+02 1.7300000000e+02 0.0000e+00 -1.0000e+00
       21  1    1    2  504  503 +1.9326705187e+00 +3.2532073713e+01 -4.5384649114e+02 4.5501506410e+02 0.0000000000e+00 0.0000e+00 -1.0000e+00
       21  1    1    2  505  502 +8.3141565432e+01 +6.1141501651e+01 +6.8649083403e+02 6.9420491812e+02 0.0000000000e+00 0.0000e+00 -1.0000e+00
<mgrwt>
<rscale>  4 0.17304447E+03</rscale>
<asrwt>0</asrwt>
<pdfrwt beam="1">  1       21 0.16853222E+00 0.17304447E+03</pdfrwt>
<pdfrwt beam="2">  1       21 0.83531855E-01 0.17304447E+03</pdfrwt>
<totfact> 0.27959456E+02</totfact>
</mgrwt>
</event>
<event>
 6      1 +2.5168323e+02 1.93632700e+02 7.54677100e-03 1.15832300e-01
       21 -1    0    0  501  502 +0.0000000000e+00 +0.0000000000e+00 +5.6058491513e+02 5.6058491513e+02 0.0000000000e+00 0.0000e+00 1.0000e+00
       21 -1    0    0  505  503 -0.0000000000e+00 -0.0000000000e+00 -7.8828930447e+02 7.8828930447e+02 0.0000000000e+00 0.0000e+00 1.0000e+00
        6  1    1    2  501    0 +5.5366400747e+01 +8.3811248388e+01 +3.2286863289e+02 3.7981958585e+02 1.7300000000e+02 0.0000e+00 1.0000e+00
       -6  1    1    2    0  504 -1.1505897356e+02 +3.7710077700e+01 +1.2319637717e+02 2.4447283019e+02 1.7300000000e+02 0.0000e+00 1.0000e+00
       21  1    1    2  504  503 +4.6333739092e+01 -1.3643227303e+02 -1.8073008112e+02 2.3113619951e+02 0.0000000000e+00 0.0000e+00 1.0000e+00
       21  1    1    2  505  502 +1.3358833717e+01 +1.4910946946e+01 -4.9303931828e+02 4.9344560404e+02 0.0000000000e+00 0.0000e+00 1.0000e+00
<mgrwt>
<rscale>  4 0.19363271E+03</rscale>
<asrwt>0</asrwt>
<pdfrwt beam="1">  1       21 0.86243833E-01 0.19363271E+03</pdfrwt>
<pdfrwt beam="2">  1       21 0.12127528E+00 0.19363271E+03</pdfrwt>
<totfact> 0.59561430E+02</totfact>
</mgrwt>
</event>
<event>
 6      1 +2.5168323e+02 4.07286900e+02 7.54677100e-03 1.09842800e-01
       21 -1    0    0  505  502 +0.0000000000e+00 +0.0000000000e+00 +7.3736573874e+02 7.3736573874e+02 0.0000000000e+00 0.0000e+00 1.0000e+00
       21 -1    0    0  504  503 -0.0000000000e+00 -0.0000000000e+00 -4.9830731045e+02 4.9830731045e+02 0.0000000000e+00 0.0000e+00 1.0000e+00
        6  1    1    2  501    0 +1.9640487524e+02 -2.2576411784e+02 -1.6400826630e+02 3.8258596855e+02 1.7300000000e+02 0.0000e+00 -1.0000e+00
       -6  1    1    2    0  502 -1.5635638966e+02 +3.6828165810e+02 +3.0975269947e+02 5.3474707583e+02 1.7300000000e+02 0.0000e+00 1.0000e+00
       21  1    1    2  504  501 -1.7740174243e+01 -1.3495168306e+02 -7.0192134588e+01 1.5314570285e+02 0.0000000000e+00 0.0000e+00 1.0000e+00
       21  1    1    2  505  503 -2.2308311334e+01 -7.5658572043e+00 +1.6350612971e+02 1.6519430196e+02 0.0000000000e+00 0.0000e+00 1.0000e+00
<mgrwt>
<rscale>  4 0.40728689E+03</rscale>
<asrwt>0</asrwt>
<pdfrwt beam="1">  1       21 0.11344088E+00 0.40728689E+03</pdfrwt>
<pdfrwt beam="2">  1       21 0.76662663E-01 0.40728689E+03</pdfrwt>
<totfact> 0.79004453E+02</totfact>
</mgrwt>
</event>
<event>
 6      1 +2.5168323e+02 2.19217200e+02 7.54677100e-03 1.07064900e-01
       21 -1    0    0  504  502 +0.0000000000e+00 +0.0000000000e+00 +1.6295243745e+02 1.6295243745e+02 0.0000000000e+00 0.0000e+00 -1.0000e+00
       21 -1    0    0  501  503 -0.0000000000e+00 -0.0000000000e+00 -5.8409277083e+02 5.8409277083e+02 0.0000000000e+00 0.0000e+00 -1.0000e+00
        6  1    1    2  501    0 -8.8098747321e+01 -1.2122699234e+02 -3.2908933237e+02 4.0085678444e+02 1.7300000000e+02 0.0000e+00 -1.0000e+00
       -6  1    1    2    0  505 +6.0024622223e+01 +9.5647861300e+01 -1.5519467213e+02 2.5839089555e+02 1.7300000000e+02 0.0000e+00 -1.0000e+00
       21  1    1    2  504  503 +3.0406692575e+01 -1.0121284743e+00 +4.8767047693e+01 5.7478833478e+01 0.0000000000e+00 0.0000e+00 -1.0000e+00
       21  1    1    2  505  502 -2.3325674767e+00 +2.6591259512e+01 +1.4376623432e+01 3.0318694806e+01 0.0000000000e+00 0.0000e+00 1.0000e+00
<mgrwt>
<rscale>  4 0.21921720E+03</rscale>
<asrwt>0</asrwt>
<pdfrwt beam="1">  1       21 0.25069605E-01 0.21921720E+03</pdfrwt>
<pdfrwt beam="2">  1       21 0.89860428E-01 0.21921720E+03</pdfrwt>
<totfact> 0.15623958E+04</totfact>
</mgrwt>
</event>
<event>
 6      1 +2.5168323e+02 3.20544900e+02 7.54677100e-03 1.07064900e-01
       21 -1    0    0  505  502 +0.0000000000e+00 +0.0000000000e+00 +2.8467307537e+02 2.8467307537e+02 0.0000000000e+00 0.0000e+00 1.0000e+00
       21 -1    0    0  504  503 -0.0000000000e+00 -0.0000000000e+00 -1.1900421514e+03 1.1900421514e+03 0.0000000000e+00 0.0000e+00 -1.0000e+00
        6  1    1    2  501    0 +2.7441816263e+02 +1.8494630828e+02 -3.2118605530e+02 4.9254436048e+02 1.7300000000e+02 0.0000e+00 -1.0000e+00
       -6  1    1    2    0  503 -1.8986405887e+02 -1.5958051444e+02 -6.9989504501e+02 7.6242794772e+02 1.7300000000e+02 0.0000e+00 -1.0000e+00
       21  1    1    2  504  502 -1.0593742610e+02 -7.6969983117e+01 +8.1690826234e+01 1.5433893754e+02 0.0000000000e+00 0.0000e+00 1.0000e+00
       21  1    1    2  505  501 +2.1383322346e+01 +5.1604189278e+01 +3.4021198000e+01 6.5403981063e+01 0.0000000000e+00 0.0000e+00 1.0000e+00
<mgrwt>
<rscale>  4 0.32054494E+03</rscale>
<asrwt>0</asrwt>
<pdfrwt beam="1">  1       21 0.43795859E-01 0.32054494E+03</pdfrwt>
<pdfrwt beam="2">  1       21 0.18308340E+00 0.32054494E+03</pdfrwt>
<totfact> 0.77754999E+02</totfact>
</mgrwt>
</event>
<event>
 6      1 +2.5168323e+02 1.81280400e+02 7.54677100e-03 1.16820100e-01
       21 -1    0    0  504  502 +0.0000000000e+00 +0.0000000000e+00 +1.4393548481e+02 1.4393548481e+02 0.0000000000e+00 0.0000e+00 -1.0000e+00
       21 -1    0    0  501  503 -0.0000000000e+00 -0.0000000000e+00 -1.3781634064e+03 1.3781634064e+03 0.0000000000e+00 0.0000e+00 -1.0000e+00
        6  1    1    2  501    0 -6.2546601843e+01 +3.2221393954e+01 -9.8835040248e+02 1.0058408491e+03 1.7300000000e+02 0.0000e+00 -1.0000e+00
       -6  1    1    2    0  505 +2.5475020465e+01 -2.2379507941e+01 +2.1868461343e+01 1.7764303714e+02 1.7300000000e+02 0.0000e+00 1.0000e+00
       21  1    1    2  504  503 +2.2414916237e+01 +5.2076944474e+00 -2.9958643814e+02 3.0046893761e+02 0.0000000000e+00 0.0000e+00 -1.0000e+00
       21  1    1    2  505  502 +1.4656665141e+01 -1.5049580460e+01 +3.1840457720e+01 3.8146067332e+01 0.0000000000e+00 0.0000e+00 -1.0000e+00
<mgrwt>
<rscale>  4 0.18128037E+03</rscale>
<asrwt>0</asrwt>
<pdfrwt beam="1">  1       21 0.22143920E-01 0.18128037E+03</pdfrwt>
<pdfrwt beam="2">  1       21 0.21202514E+00 0.18128037E+03</pdfrwt>
<totfact> 0.21755958E+03</totfact>
</mgrwt>
</event>
<event>
 6      1 +2.5168323e+02 2.57191800e+02 7.54677100e-03 9.87464100e-02
       21 -1    0    0  503  502 +0.0000000000e+00 +0.0000000000e+00 +7.7873796724e+02 7.7873796724e+02 0.0000000000e+00 0.0000e+00 1.0000e+00
       21 -1    0    0  505  503 -0.0000000000e+00 -0.0000000000e+00 -5.8709980940e+02 5.8709980940e+02 0.0000000000e+00 0.0000e+00 -1.0000e+00
        6  1    1    2  501    0 +2.3544848255e+02 +5.7976653190e+01 +4.4899572449e+02 5.3881670433e+02 1.7300000000e+02 0.0000e+00 -1.0000e+00
       -6  1    1    2    0  504 -1.3181807601e+02 +2.6992098520e+01 +1.5927655476e+02 2.7092914100e+02 1.7300000000e+02 0.0000e+00 1.0000e+00
       21  1    1    2  504  502 -5.1274307177e+01 -1.0362300421e+02 +1.8792705777e+01 1.1713217905e+02 0.0000000000e+00 0.0000e+00 -1.0000e+00
       21  1    1    2  505  501 -5.2356099371e+01 +1.8654252502e+01 -4.3542682718e+02 4.3895975226e+02 0.0000000000e+00 0.0000e+00 -1.0000e+00
<mgrwt>
<rscale>  4 0.25719182E+03</rscale>
<asrwt>0</asrwt>
<pdfrwt beam="1">  1       21 0.11980584E+00 0.25719182E+03</pdfrwt>
<pdfrwt beam="2">  1       21 0.90323048E-01 0.25719182E+03</pdfrwt>
<totfact> 0.51888162E+02</totfact>
</mgrwt>
</event>
<event>
 6      1 +2.5168323e+02 3.12555800e+02 7.54677100e-03 1.07240600e-01
       21 -1    0    0  505  502 +0.0000000000e+00 +0.0000000000e+00 +9.1845604975e+02 9.1845604975e+02 0.0000000000e+00 0.0000e+00 1.0000e+00
       21 -1    0    0  504  503 -0.0000000000e+00 -0.0000000000e+00 -1.6327071423e+02 1.6327071423e+02 0.0000000000e+00 0.0000e+00 -1.0000e+00
        6  1    1    2  501    0 -2.2223210443e+02 -1.3619016536e+02 +3.3562088295e+02 4.5880850739e+02 1.7300000000e+02 0.0000e+00 -1.0000e+00
       -6  1    1    2    0  502 +2.2924621877e+02 +1.2315687423e+02 +4.4702638013e+02 5.4542004824e+02 1.7300000000e+02 0.0000e+00 1.0000e+00
       21  1    1    2  504  501 -2.0765091678e+01 -1.2277440774e+01 +1.3330094420e+01 2.7561132081e+01 0.0000000000e+00 0.0000e+00 1.0000e+00
       21  1    1    2  505  503 +1.3750977344e+01 +2.5310731911e+01 -4.0792021984e+01 4.9937076259e+01 0.0000000000e+00 0.0000e+00 -1.0000e+00
<mgrwt>
<rscale>  4 0.31255581E+03</rscale>
<asrwt>0</asrwt>
<pdfrwt beam="1">  1       21 0.14130093E+00 0.31255581E+03</pdfrwt>
<pdfrwt beam="2">  1       21 0.25118572E-01 0.31255581E+03</pdfrwt>
<totfact> 0.48446798E+03</totfact>
</mgrwt>
</event>
<event>
 6      1 +2.5168323e+02 2.70556300e+02 7.54677100e-03 1.15942100e-01
       21 -1    0    0  504  502 +0.0000000000e+00 +0.0000000000e+00 +7.5001166333e+02 7.5001166333e+02 0.0000000000e+00 0.0000e+00 -1.0000e+00
       21 -1    0    0  501  503 -0.0000000000e+00 -0.0000000000e+00 -3.3356940485e+02 3.3356940485e+02 0.0000000000e+00 0.0000e+00 1.0000e+00
        6  1    1    2  501    0 +1.5851456628e+02 +1.5000365571e+02 +4.2209859325e+02 5.0569179039e+02 1.7300000000e+02 0.0000e+00 -1.0000e+00
       -6  1    1    2    0  502 -6.4340098775e+01 -1.9708549625e+02 +1.9506797335e+02 3.3311087549e+02 1.7300000000e+02 0.0000e+00 1.0000e+00
       21  1    1    2  504  505 +1.0153056408e+00 +4.3845961465e+01 -5.0289544066e+01 6.6727336413e+01 0.0000000000e+00 0.0000e+00 1.0000e+00
       21  1    1    2  505  503 -9.5189773144e+01 +3.2358790816e+00 -1.5043476406e+02 1.7805106588e+02 0.0000000000e+00 0.0000e+00 1.0000e+00
<mgrwt>
<rscale>  4 0.27055625E+03</rscale>
<asrwt>0</asrwt>
<pdfrwt beam="1">  1       21 0.11538641E+00 0.27055625E+03</pdfrwt>
<pdfrwt beam="2">  1       21 0.51318370E-01 0.27055625E+03</pdfrwt>
<totfact> 0.19731192E+03</totfact>
</mgrwt>
</event>
<event>
 6      1 +2.5168323e+02 2.02074000e+02 7.54677100e-03 1.17132900e-01
       21 -1    0    0  505  502 +0.0000000000e+00 +0.0000000000e+00 +2.0713510322e+03 2.0713510322e+03 0.0000000000e+00 0.0000e+00 -1.0000e+00
       21 -1    0    0  504  503 -0.0000000000e+00 -0.0000000000e+00 -6.1689945123e+01 6.1689945123e+01 0.0000000000e+00 0.0000e+00 -1.0000e+00
        6  1    1    2  501    0 -3.8130534218e+01 +1.7967178360e+02 +6.1266153501e+02 6.6258512204e+02 1.7300000000e+02 0.0000e+00 -1.0000e+00
       -6  1    1    2    0  502 +6.7790192480e+01 -6.1952663665e+01 +1.0778237114e+03 1.0954755112e+03 1.7300000000e+02 0.0000e+00 -1.0000e+00
       21  1    1    2  504  501 -3.4548741385e+01 -1.4317188331e+02 +1.7607895824e+02 2.2955522916e+02 0.0000000000e+00 0.0000e+00 -1.0000e+00
       21  1    1    2  505  503 +4.8890831221e+00 +2.5452763371e+01 +1.4309688241e+02 1.4542511493e+02 0.0000000000e+00 0.0000e+00 1.0000e+00
<mgrwt>
<rscale>  4 0.20207403E+03</rscale>
<asrwt>0</asrwt>
<pdfrwt beam="1">  1       21 0.31866934E+00 0.20207403E+03</pdfrwt>
<pdfrwt beam="2">  1       21 0.94907624E-02 0.20207403E+03</pdfrwt>
<totfact> 0.23424562E+03</totfact>
</mgrwt>
</event>
<event>
 6      1 +2.5168323e+02 2.32726700e+02 7.54677100e-03 1.17132900e-01
       21 -1    0    0  503  502 +0.0000000000e+00 +0.0000000000e+00 +9.3138608268e+02 9.3138608268e+02 0.0000000000e+00 0.0000e+00 1.0000e+00
       21 -1    0    0  504  503 -0.0000000000e+00 -0.0000000000e+00 -6.3870364110e+02 6.3870364110e+02 0.0000000000e+00 0.0000e+00 1.0000e+00
        6  1    1    2  501    0 -4.7090939143e+01 +1.7898638877e+02 +3.6879028303e+02 4.4742480572e+02 1.7300000000e+02 0.0000e+00 -1.0000e+00
       -6  1    1    2    0  505 -1.5613867731e+01 -1.4452346736e+02 +2.0587865981e+02 3.0568913629e+02 1.7300000000e+02 0.0000e+00 1.0000e+00
       21  1    1    2  504  501 +2.2419096375e+01 +1.1937670622e+01 -5.4565282635e+02 5.4624365512e+02 0.0000000000e+00 0.0000e+00 1.0000e+00
       21  1    1    2  505  502 +4.0285710499e+01 -4.6400592026e+01 +2.6366632509e+02 2.7073212664e+02 0.0000000000e+00 0.0000e+00 1.0000e+00
<mgrwt>
<rscale>  4 0.23272667E+03</rscale>
<asrwt>0</asrwt>
<pdfrwt beam="1">  1       21 0.14329017E+00 0.23272667E+03</pdfrwt>
<pdfrwt beam="2">  1       21 0.98262098E-01 0.23272667E+03</pdfrwt>
<totfact> 0.27551831E+02</totfact>
</mgrwt>
</event>
<event>
 6      1 +2.5168323e+02 2.07683200e+02 7.54677100e-03 1.03924000e-01
       21 -1    0    0  504  502 +0.0000000000e+00 +0.0000000000e+00 +1.8878224003e+03 1.8878224003e+03 0.0000000000e+00 0.0000e+00 1.0000e+00
       21 -1    0    0  501  503 -0.0000000000e+00 -0.0000000000e+00 -3.8275772158e+02 3.8275772158e+02 0.0000000000e+00 0.0000e+00 1.0000e+00
        6  1    1    2  501    0 +7.2503113902e+01 -8.2363498087e+01 -2.7846105262e+02 3.4570219145e+02 1.7300000000e+02 0.0000e+00 1.0000e+00
       -6  1    1    2    0  505 +6.9462190903e+00 +2.0068847670e+02 +1.9661990666e+02 3.3001894238e+02 1.7300000000e+02 0.0000e+00 -1.0000e+00
       21  1    1    2  504  503 -4.2253671429e+01 -5.5294007560e+01 +4.2583468636e+02 4.3148346449e+02 0.0000000000e+00 0.0000e+00 1.0000e+00
       21  1    1    2  505  502 -3.7195661563e+01 -6.3030971050e+01 +1.1610711383e+03 1.1633755235e+03 0.0000000000e+00 0.0000e+00 1.0000e+00
<mgrwt>
<rscale>  4 0.20768321E+03</rscale>
<asrwt>0</asrwt>
<pdfrwt beam="1">  1       21 0.29043421E+00 0.20768321E+03</pdfrwt>
<pdfrwt beam="2">  1       21 0.58885804E-01 0.20768321E+03</pdfrwt>
<totfact> 0.10209550E+02</totfact>
</mgrwt>
</event>
<event>
 6      1 +2.5168323e+02 2.17439700e+02 7.54677100e-03 1.05831300e-01
       21 -1    0    0  504  502 +0.0000000000e+00 +0.0000000000e+00 +4.1346934117e+02 4.1346934117e+02 0.0000000000e+00 0.0000e+00 -1.0000e+00
       21 -1    0    0  501  503 -0.0000000000e+00 -0.0000000000e+00 -5.6999690690e+02 5.6999690690e+02 0.0000000000e+00 0.0000e+00 1.0000e+00
        6  1    1    2  501    0 +1.5466411349e+02 -1.3527492466e+01 +2.2588175644e+02 3.2412273747e+02 1.7300000000e+02 0.0000e+00 -1.0000e+00
       -6  1    1    2    0  505 -1.0363775635e+02 +5.1392647646e+01 -4.3823628713e+02 4.8514124967e+02 1.7300000000e+02 0.0000e+00 1.0000e+00
       21  1    1    2  504  503 -2.6824919800e+01 -3.7485750462e+01 -4.8614082673e+01 6.6993185057e+01 0.0000000000e+00 0.0000e+00 1.0000e+00
       21  1    1    2  505  502 -2.4201437348e+01 -3.7940471747e-01 +1.0444104764e+02 1.0720907587e+02 0.0000000000e+00 0.0000e+00 1.0000e+00
<mgrwt>
<rscale>  4 0.21743971E+03</rscale>
<asrwt>0</asrwt>
<pdfrwt beam="1">  1       21 0.63610668E-01 0.21743971E+03</pdfrwt>
<pdfrwt beam="2">  1       21 0.87691832E-01 0.21743971E+03</pdfrwt>
<totfact> 0.24951633E+03</totfact>
</mgrwt>
</event>
<event>
 6      1 +2.5168323e+02 2.39648000e+02 7.54677100e-03 1.16820100e-01
       21 -1    0    0  504  502 +0.0000000000e+00 +0.0000000000e+00 +4.2403041294e+02 4.2403041294e+02 0.0000000000e+00 0.0000e+00 1.0000e+00
       21 -1    0    0  501  503 -0.0000000000e+00 -0.0000000000e+00 -3.4494629073e+02 3.4494629073e+02 0.0000000000e+00 0.0000e+00 1.0000e+00
        6  1    1    2  501    0 -1.6364857265e+02 -4.3280528411e+01 -2.0568883115e+02 3.1763336526e+02 1.7300000000e+02 0.0000e+00 1.0000e+00
       -6  1    1    2    0  505 +1.3532429660e+02 +5.1160539257e+01 +2.6648013503e+02 3.4909988312e+02 1.7300000000e+02 0.0000e+00 1.0000e+00
       21  1    1    2  504  503 +6.5410723704e+00 -2.2551041599e+01 -3.5395567607e+01 4.2475655512e+01 0.0000000000e+00 0.0000e+00 -1.0000e+00
       21  1    1    2  505  502 +2.1783203678e+01 +1.4671030753e+01 +5.3688385933e+01 5.9767799774e+01 0.0000000000e+00 0.0000e+00 -1.0000e+00
<mgrwt>
<rscale>  4 0.23964796E+03</rscale>
<asrwt>0</asrwt>
<pdfrwt beam="1">  1       21 0.65235448E-01 0.23964796E+03</pdfrwt>
<pdfrwt beam="2">  1       21 0.53068660E-01 0.23964796E+03</pdfrwt>
<totfact> 0.70448590E+03</totfact>
</mgrwt>
</event>
<event>
 6      1 +2.5168323e+02 4.00609900e+02 7.54677100e-03 1.07240600e-01
       21 -1    0    0  505  502 +0.0000000000e+00 +0.0000000000e+00 +8.7726174853e+02 8.7726174853e+02 0.0000000000e+00 0.0000e+00 -1.0000e+00
       21 -1    0    0  504  503 -0.0000000000e+00 -0.0000000000e+00 -9.8776073724e+02 9.8776073724e+02 0.0000000000e+00 0.0000e+00 1.0000e+00
        6  1    1    2  501    0 +2.3303653771e+02 +2.5072940117e+02 +6.1618942074e+01 3.8845482948e+02 1.7300000000e+02 0.0000e+00 -1.0000e+00
       -6  1    1    2    0  502 -3.5103562413e+02 -2.1837803422e+02 +4.5231007742e+02 6.3673258231e+02 1.7300000000e+02 0.0000e+00 1.0000e+00
       21  1    1    2  504  501 +9.8759751433e+01 -1.4731125835e+01 +8.4268448091e+01 1.3065858531e+02 0.0000000000e+00 0.0000e+00 -1.0000e+00
       21  1    1    2  505  503 +1.9239334991e+01 -1.7620241113e+01 -7.0869645630e+02 7.0917648867e+02 0.0000000000e+00 0.0000e+00 1.0000e+00
<mgrwt>
<rscale>  4 0.40060991E+03</rscale>
<asrwt>0</asrwt>
<pdfrwt beam="1">  1       21 0.13496335E+00 0.40060991E+03</pdfrwt>
<pdfrwt beam="2">  1       21 0.15196319E+00 0.40060991E+03</pdfrwt>
<totfact> 0.93521203E+01</totfact>
</mgrwt>
</event>
<event>
 6      1 +2.5168323e+02 2.55232700e+02 7.54677100e-03 1.09842800e-01
       21 -1    0    0  505  502 +0.0000000000e+00 +0.0000000000e+00 +2.3508457257e+02 2.3508457257e+02 0.0000000000e+00 0.0000e+00 -1.0000e+00
       21 -1    0    0  504  503 -0.0000000000e+00 -0.0000000000e+00 -7.3900720374e+02 7.3900720374e+02 0.0000000000e+00 0.0000e+00 1.0000e+00
        6  1    1    2  501    0 +2.0891110591e+01 -1.7941508822e+02 -5.9122711188e+02 6.4195382249e+02 1.7300000000e+02 0.0000e+00 1.0000e+00
       -6  1    1    2    0  502 -4.5776047245e+01 +1.5142991965e+02 +7.7439734431e+01 2.4688535707e+02 1.7300000000e+02 0.0000e+00 -1.0000e+00
       21  1    1    2  504  501 +1.8832614168e+01 -1.2559437569e+01 -2.3328073336e+01 3.2505473908e+01 0.0000000000e+00 0.0000e+00 -1.0000e+00
       21  1    1    2  505  503 +6.0523224851e+00 +4.0544606140e+01 +3.3192819621e+01 5.2747122849e+01 0.0000000000e+00 0.0000e+00 1.0000e+00
<mgrwt>
<rscale>  4 0.25523271E+03</rscale>
<asrwt>0</asrwt>
<pdfrwt beam="1">  1       21 0.36166858E-01 0.25523271E+03</pdfrwt>
<pdfrwt beam="2">  1       21 0.11369341E+00 0.25523271E+03</pdfrwt>
<totfact> 0.42452984E+03</totfact>
</mgrwt>
</event>
<event>
 6      1 +2.5168323e+02 5.34813700e+02 7.54677100e-03 1.11671100e-01
       21 -1    0    0  503  502 +0.0000000000e+00 +0.0000000000e+00 +1.7225347002e+03 1.7225347002e+03 0.0000000000e+00 0.0000e+00 -1.0000e+00
       21 -1    0    0  501  503 -0.0000000000e+00 -0.0000000000e+00 -4.5753660749e+02 4.5753660749e+02 0.0000000000e+00 0.0000e+00 1.0000e+00
        6  1    1    2  501    0 +3.9156626928e+02 -3.6079114346e+02 -1.1541235265e+02 5.7161473352e+02 1.7300000000e+02 0.0000e+00 -1.0000e+00
       -6  1    1    2    0  504 -3.5210557135e+02 +2.7592916225e+02 +4.0535145255e+02 6.2797614289e+02 1.7300000000e+02 0.0000e+00 -1.0000e+00
       21  1    1    2  504  505 -2.8916309693e+01 +4.7311318747e+01 +3.6626584192e+02 3.7043917288e+02 0.0000000000e+00 0.0000e+00 1.0000e+00
       21  1    1    2  505  502 -1.0544388234e+01 +3.7550662464e+01 +6.0879315089e+02 6.1004125839e+02 0.0000000000e+00 0.0000e+00 -1.0000e+00
<mgrwt>
<rscale>  4 0.53481368E+03</rscale>
<asrwt>0</asrwt>
<pdfrwt beam="1">  1       21 0.26500534E+00 0.53481368E+03</pdfrwt>
<pdfrwt beam="2">  1       21 0.70390248E-01 0.53481368E+03</pdfrwt>
<totfact> 0.73641523E+01</totfact>
</mgrwt>
</event>
<event>
 6      1 +2.5168323e+02 2.84155200e+02 7.54677100e-03 1.16820100e-01
       21 -1    0    0  505  502 +0.0000000000e+00 +0.0000000000e+00 +7.9670494636e+02 7.9670494636e+02 0.0000000000e+00 0.0000e+00 1.0000e+00
       21 -1    0    0  504  503 -0.0000000000e+00 -0.0000000000e+00 -8.1819300426e+02 8.1819300426e+02 0.0000000000e+00 0.0000e+00 1.0000e+00
        6  1    1    2  501    0 -2.4769563231e+02 -4.1390539292e+01 +9.3218808840e+01 3.1888093284e+02 1.7300000000e+02 0.0000e+00 1.0000e+00
       -6  1    1    2    0  503 +2.2809571188e+02 +1.9086846840e+01 -7.8022573165e+01 2.9733564102e+02 1.7300000000e+02 0.0000e+00 1.0000e+00
       21  1    1    2  504  502 -3.1979227607e+01 -6.9273661086e+00 -5.1533512761e+02 5.1637288188e+02 0.0000000000e+00 0.0000e+00 1.0000e+00
       21  1    1    2  505  501 +5.1579148038e+01 +2.9231058560e+01 +4.7865083404e+02 4.8230849487e+02 0.0000000000e+00 0.0000e+00 1.0000e+00
<mgrwt>
<rscale>  4 0.28415520E+03</rscale>
<asrwt>0</asrwt>
<pdfrwt beam="1">  1       21 0.12256999E+00 0.28415520E+03</pdfrwt>
<pdfrwt beam="2">  1       21 0.12587585E+00 0.28415520E+03</pdfrwt>
<totfact> 0.21367637E+02</totfact>
</mgrwt>
</event>
<event>
 6      1 +2.5168323e+02 2.26163800e+02 7.54677100e-03 1.15942100e-01
       21 -1    0    0  504  502 +0.0000000000e+00 +0.0000000000e+00 +1.0468825545e+02 1.0468825545e+02 0.0000000000e+00 0.0000e+00 1.0000e+00
       21 -1    0    0  501  503 -0.0000000000e+00 -0.0000000000e+00 -1.2157015070e+03 1.2157015070e+03 0.0000000000e+00 0.0000e+00 -1.0000e+00
        6  1    1    2  501    0 +1.9283699239e+02 -4.8169778450e+01 -4.0626042602e+02 4.8423441321e+02 1.7300000000e+02 0.0000e+00 -1.0000e+00
       -6  1    1    2    0  502 -1.1891899500e+02 -6.3537036176e+01 -1.6211721187e+02 2.7274470246e+02 1.7300000000e+02 0.0000e+00 1.0000e+00
       21  1    1    2  504  505 +7.0913408902e+00 +2.8992597459e+01 -5.9120629582e+01 6.6227688056e+01 0.0000000000e+00 0.0000e+00 -1.0000e+00
       21  1    1    2  505  503 -8.1009338288e+01 +8.2714217167e+01 -4.8351498405e+02 4.9718295869e+02 0.0000000000e+00 0.0000e+00 1.0000e+00
<mgrwt>
<rscale>  4 0.22616382E+03</rscale>
<asrwt>0</asrwt>
<pdfrwt beam="1">  1       21 0.16105885E-01 0.22616382E+03</pdfrwt>
<pdfrwt beam="2">  1       21 0.18703100E+00 0.22616382E+03</pdfrwt>
<totfact> 0.54649195E+03</totfact>
</mgrwt>
</event>
<event>
 6      1 +2.5168323e+02 2.93585100e+02 7.54677100e-03 1.11471900e-01
       21 -1    0    0  503  502 +0.0000000000e+00 +0.0000000000e+00 +8.0065358650e+02 8.0065358650e+02 0.0000000000e+00 0.0000e+00 -1.0000e+00
       21 -1    0    0  501  503 -0.0000000000e+00 -0.0000000000e+00 -3.1186385867e+02 3.1186385867e+02 0.0000000000e+00 0.0000e+00 -1.0000e+00
        6  1    1    2  501    0 -2.3397926190e+02 +1.2736697282e+02 +5.2607356289e+02 6.1453318408e+02 1.7300000000e+02 0.0000e+00 -1.0000e+00
       -6  1    1    2    0  504 +2.0942653099e+02 -8.2709502040e+01 -1.7152133076e+02 3.3173619115e+02 1.7300000000e+02 0.0000e+00 -1.0000e+00
       21  1    1    2  504  505 -1.4045744751e+00 -2.4895128111e+01 -3.0654868029e+00 2.5122448974e+01 0.0000000000e+00 0.0000e+00 -1.0000e+00
       21  1    1    2  505  502 +2.5957305380e+01 -1.9762342665e+01 +1.3730298250e+02 1.4112562096e+02 0.0000000000e+00 0.0000e+00 -1.0000e+00
<mgrwt>
<rscale>  4 0.29358510E+03</rscale>
<asrwt>0</asrwt>
<pdfrwt beam="1">  1       21 0.12317747E+00 0.29358510E+03</pdfrwt>
<pdfrwt beam="2">  1       21 0.47979056E-01 0.29358510E+03</pdfrwt>
<totfact> 0.19022689E+03</totfact>
</mgrwt>
</event>
<event>
 6      1 +2.5168323e+02 2.17225200e+02 7.54677100e-03 1.17132900e-01
       21 -1    0    0  505  502 +0.0000000000e+00 +0.0000000000e+00 +5.2496580240e+02 5.2496580240e+02 0.0000000000e+00 0.0000e+00 1.0000e+00
       21 -1    0    0  504  503 -0.0000000000e+00 -0.0000000000e+00 -3.4300581676e+02 3.4300581676e+02 0.0000000000e+00 0.0000e+00 1.0000e+00
        6  1    1    2  501    0 +9.9117397644e+01 -1.0965725407e+02 +3.4785670768e+02 4.1567085652e+02 1.7300000000e+02 0.0000e+00 1.0000e+00
       -6  1    1    2    0  502 -6.4871748482e+01 +1.1264562016e+02 -2.6032685512e+02 3.3852097570e+02 1.7300000000e+02 0.0000e+00 1.0000e+00
       21  1    1    2  504  501 -2.2293095529e+01 -1.9722495628e+01 +1.8344300587e+01 3.4963871440e+01 0.0000000000e+00 0.0000e+00 1.0000e+00
       21  1    1    2  505  503 -1.1952553633e+01 +1.6734129537e+01 +7.6085832492e+01 7.8815915498e+01 0.0000000000e+00 0.0000e+00 1.0000e+00
<mgrwt>
<rscale>  4 0.21722521E+03</rscale>
<asrwt>0</asrwt>
<pdfrwt beam="1">  1       21 0.80763970E-01 0.21722521E+03</pdfrwt>
<pdfrwt beam="2">  1       21 0.52770126E-01 0.21722521E+03</pdfrwt>
<totfact> 0.44955544E+03</totfact>
</mgrwt>
</event>
<event>
 6      1 +2.5168323e+02 3.02177900e+02 7.54677100e-03 1.12989000e-01
       21 -1    0    0  501  502 +0.0000000000e+00 +0.0000000000e+00 +1.4557170515e+02 1.4557170515e+02 0.0000000000e+00 0.0000e+00 -1.0000e+00
       21 -1    0    0  502  503 -0.0000000000e+00 -0.0000000000e+00 -1.5148932217e+03 1.5148932217e+03 0.0000000000e+00 0.0000e+00 1.0000e+00
        6  1    1    2  501    0 -7.4677767085e+01 +1.2295809927e+02 -6.8458416860e+01 2.3518294562e+02 1.7300000000e+02 0.0000e+00 -1.0000e+00
       -6  1    1    2    0  504 +5.7249720206e+00 +1.7844654018e+02 -4.2307507585e+02 4.9071118065e+02 1.7300000000e+02 0.0000e+00 -1.0000e+00
       21  1    1    2  504  505 +8.2117543533e+01 -2.5484749680e+02 -6.7673092783e+02 7.2777420006e+02 0.0000000000e+00 0.0000e+00 1.0000e+00
       21  1    1    2  505  503 -1.3164748468e+01 -4.6557142644e+01 -2.0105709605e+02 2.0679660057e+02 0.0000000000e+00 0.0000e+00 1.0000e+00
<mgrwt>
<rscale>  4 0.28069976E+03</rscale>
<asrwt>0</asrwt>
<pdfrwt beam="1">  1       21 0.22395646E-01 0.30217786E+03</pdfrwt>
<pdfrwt beam="2">  1       21 0.23306050E+00 0.30217786E+03</pdfrwt>
<totfact> 0.14153620E+03</totfact>
</mgrwt>
</event>
<event>
 6      1 +2.5168323e+02 5.08655200e+02 7.54677100e-03 1.11471900e-01
       21 -1    0    0  503  502 +0.0000000000e+00 +0.0000000000e+00 +1.3891243207e+03 1.3891243207e+03 0.0000000000e+00 0.0000e+00 1.0000e+00
       21 -1    0    0  501  503 -0.0000000000e+00 -0.0000000000e+00 -3.2730008236e+02 3.2730008236e+02 0.0000000000e+00 0.0000e+00 -1.0000e+00
        6  1    1    2  501    0 -1.1026419860e+02 -4.5783798261e+02 +1.3123263035e+02 5.1857961306e+02 1.7300000000e+02 0.0000e+00 -1.0000e+00
       -6  1    1    2    0  504 +2.2241522078e+02 +4.5328726778e+02 +7.0534309948e+02 8.8452007640e+02 1.7300000000e+02 0.0000e+00 1.0000e+00
       21  1    1    2  504  505 +5.2509404690e+01 +7.5153648014e-01 +4.4989172972e+01 6.9150763356e+01 0.0000000000e+00 0.0000e+00 1.0000e+00
       21  1    1    2  505  502 -1.6466042687e+02 +3.7991783585e+00 +1.8025933556e+02 2.4417395027e+02 0.0000000000e+00 0.0000e+00 1.0000e+00
<mgrwt>
<rscale>  4 0.50865525E+03</rscale>
<asrwt>0</asrwt>
<pdfrwt beam="1">  1       21 0.21371143E+00 0.50865525E+03</pdfrwt>
<pdfrwt beam="2">  1       21 0.50353859E-01 0.50865525E+03</pdfrwt>
<totfact> 0.32660611E+02</totfact>
</mgrwt>
</event>
<event>
 6      1 +2.5168323e+02 2.60675000e+02 7.54677100e-03 1.16820100e-01
       21 -1    0    0  505  502 +0.0000000000e+00 +0.0000000000e+00 +4.6663574510e+02 4.6663574510e+02 0.0000000000e+00 0.0000e+00 -1.0000e+00
       21 -1    0    0  504  503 -0.0000000000e+00 -0.0000000000e+00 -2.5142699205e+02 2.5142699205e+02 0.0000000000e+00 0.0000e+00 -1.0000e+00
        6  1    1    2  501    0 +1.8331660358e+02 -1.6727599841e+01 +1.2159007609e+02 2.8035323495e+02 1.7300000000e+02 0.0000e+00 -1.0000e+00
       -6  1    1    2    0  503 -2.0822569509e+02 -1.5876752263e+01 +1.5343216968e+02 3.1157734521e+02 1.7300000000e+02 0.0000e+00 -1.0000e+00
       21  1    1    2  504  502 +1.8100205840e+00 +2.2579605728e+01 -8.6514346830e+01 8.9430682525e+01 0.0000000000e+00 0.0000e+00 -1.0000e+00
       21  1    1    2  505  501 +2.3099070923e+01 +1.0024746375e+01 +2.6700854107e+01 3.6701474459e+01 0.0000000000e+00 0.0000e+00 1.0000e+00
<mgrwt>
<rscale>  4 0.26067498E+03</rscale>
<asrwt>0</asrwt>
<pdfrwt beam="1">  1       21 0.71790115E-01 0.26067498E+03</pdfrwt>
<pdfrwt beam="2">  1       21 0.38681076E-01 0.26067498E+03</pdfrwt>
<totfact> 0.10839987E+04</totfact>
</mgrwt>
</event>
<event>
 6      1 +2.5168323e+02 1.84606700e+02 7.54677100e-03 1.07064900e-01
       21 -1    0    0  501  502 +0.0000000000e+00 +0.0000000000e+00 +1.1485513425e+03 1.1485513425e+03 0.0000000000e+00 0.0000e+00 1.0000e+00
       21 -1    0    0  505  503 -0.0000000000e+00 -0.0000000000e+00 -5.4695137196e+01 5.4695137196e+01 0.0000000000e+00 0.0000e+00 1.0000e+00
        6  1    1    2  501    0 -8.9616182464e+00 +4.4133889533e+01 +6.9119294656e+02 7.1393613173e+02 1.7300000000e+02 0.0000e+00 1.0000e+00
       -6  1    1    2    0  504 +5.0716843389e+01 -5.1795886585e+01 +1.8263498069e+02 2.6180058869e+02 1.7300000000e+02 0.0000e+00 1.0000e+00
       21  1    1    2  504  503 -1.3221366754e+01 +2.1960469614e+01 +8.6354887495e+01 9.0079039508e+01 0.0000000000e+00 0.0000e+00 1.0000e+00
       21  1    1    2  505  502 -2.8533858389e+01 -1.4298472563e+01 +1.3367339059e+02 1.3743071980e+02 0.0000000000e+00 0.0000e+00 1.0000e+00
<mgrwt>
<rscale>  4 0.18460666E+03</rscale>
<asrwt>0</asrwt>
<pdfrwt beam="1">  1       21 0.17670019E+00 0.18460666E+03</pdfrwt>
<pdfrwt beam="2">  1       21 0.84146373E-02 0.18460666E+03</pdfrwt>
<totfact> 0.21182375E+04</totfact>
</mgrwt>
</event>
<event>
 6      1 +2.5168323e+02 1.77433600e+02 7.54677100e-03 1.17132900e-01
       21 -1    0    0  505  502 +0.0000000000e+00 +0.0000000000e+00 +6.1914742798e+02 6.1914742798e+02 0.0000000000e+00 0.0000e+00 1.0000e+00
       21 -1    0    0  504  503 -0.0000000000e+00 -0.0000000000e+00 -3.3664069654e+02 3.3664069654e+02 0.0000000000e+00 0.0000e+00 -1.0000e+00
        6  1    1    2  501    0 +1.2247743357e+02 -4.5296702638e+01 +2.5346635770e+01 2.1822915696e+02 1.7300000000e+02 0.0000e+00 1.0000e+00
       -6  1    1    2    0  502 +4.5798032506e+01 +6.8165752409e-01 +3.1033163068e+02 3.5823546089e+02 1.7300000000e+02 0.0000e+00 1.0000e+00
       21  1    1    2  504  501 -8.4583052907e+01 +9.4564522465e+01 -1.7947253137e+02 2.1978883335e+02 0.0000000000e+00 0.0000e+00 -1.0000e+00
       21  1    1    2  505  503 -8.3692413169e+01 -4.9949477351e+01 +1.2630099636e+02 1.5953467332e+02 0.0000000000e+00 0.0000e+00 1.0000e+00
<mgrwt>
<rscale>  4 0.17743357E+03</rscale>
<asrwt>0</asrwt>
<pdfrwt beam="1">  1       21 0.95253450E-01 0.17743357E+03</pdfrwt>
<pdfrwt beam="2">  1       21 0.51790877E-01 0.17743357E+03</pdfrwt>
<totfact> 0.33022500E+03</totfact>
</mgrwt>
</event>
<event>
 6      1 +2.5168323e+02 2.75888100e+02 7.54677100e-03 1.04003000e-01
       21 -1    0    0  504  502 +0.0000000000e+00 +0.0000000000e+00 +5.0763413845e+02 5.0763413845e+02 0.0000000000e+00 0.0000e+00 1.0000e+00
       21 -1    0    0  505  503 -0.0000000000e+00 -0.0000000000e+00 -5.7704826660e+02 5.7704826660e+02 0.0000000000e+00 0.0000e+00 -1.0000e+00
        6  1    1    2  501    0 -6.2389452260e+01 -7.9992238881e+01 +1.0695663487e+02 2.2728819542e+02 1.7300000000e+02 0.0000e+00 1.0000e+00
       -6  1    1    2    0  503 +2.6342315389e+02 -6.4917317902e+01 +1.8013398618e+02 3.6875909365e+02 1.7300000000e+02 0.0000e+00 1.0000e+00
       21  1    1    2  504  501 -7.2248021148e+01 +2.1108540189e+01 -2.8740243235e+02 2.9709511128e+02 0.0000000000e+00 0.0000e+00 -1.0000e+00
       21  1    1    2  505  502 -1.2878568049e+02 +1.2380101659e+02 -6.9102316846e+01 1.9154000470e+02 0.0000000000e+00 0.0000e+00 -1.0000e+00
<mgrwt>
<rscale>  4 0.25587036E+03</rscale>
<asrwt>0</asrwt>
<pdfrwt beam="1">  1       21 0.78097560E-01 0.27588809E+03</pdfrwt>
<pdfrwt beam="2">  1       21 0.88776656E-01 0.27588809E+03</pdfrwt>
<totfact> 0.14727572E+03</totfact>
</mgrwt>
</event>
<event>
 6      1 +2.5168323e+02 2.20094200e+02 7.54677100e-03 1.04003000e-01
       21 -1    0    0  504  502 +0.0000000000e+00 +0.0000000000e+00 +5.0389245711e+02 5.0389245711e+02 0.0000000000e+00 0.0000e+00 1.0000e+00
       21 -1    0    0  505  503 -0.0000000000e+00 -0.0000000000e+00 -1.8263159272e+02 1.8263159272e+02 0.0000000000e+00 0.0000e+00 1.0000e+00
        6  1    1    2  501    0 -2.7761255589e+01 +1.2508533515e+02 +3.2732523000e+02 3.9177523476e+02 1.7300000000e+02 0.0000e+00 1.0000e+00
       -6  1    1    2    0  503 +2.1227348873e+01 -1.0757699793e+02 -3.3669470885e+01 2.0757178058e+02 1.7300000000e+02 0.0000e+00 1.0000e+00
       21  1    1    2  504  501 +8.1504892425e+00 -4.0614679186e+01 -1.0363259221e+01 4.2701051298e+01 0.0000000000e+00 0.0000e+00 -1.0000e+00
       21  1    1    2  505  502 -1.6165825264e+00 +2.3106341968e+01 +3.7968364492e+01 4.4475983187e+01 0.0000000000e+00 0.0000e+00 1.0000e+00
<mgrwt>
<rscale>  4 0.22009420E+03</rscale>
<asrwt>0</asrwt>
<pdfrwt beam="1">  1       21 0.77521916E-01 0.22009420E+03</pdfrwt>
<pdfrwt beam="2">  1       21 0.28097168E-01 0.22009420E+03</pdfrwt>
<totfact> 0.17573936E+04</totfact>
</mgrwt>
</event>
<event>
 6      1 +2.5168323e+02 1.80726700e+02 7.54677100e-03 1.17132900e-01
       21 -1    0    0  505  502 +0.0000000000e+00 +0.0000000000e+00 +8.6752885740e+02 8.6752885740e+02 0.0000000000e+00 0.0000e+00 1.0000e+00
       21 -1    0    0  504  503 -0.0000000000e+00 -0.0000000000e+00 -1.5808320937e+02 1.5808320937e+02 0.0000000000e+00 0.0000e+00 1.0000e+00
        6  1    1    2  501    0 -6.3251286817e+01 +6.3098075213e+01 -1.3063311701e+01 1.9514543933e+02 1.7300000000e+02 0.0000e+00 1.0000e+00
       -6  1    1    2    0  502 +3.5135753722e+01 -1.7099000429e+01 +3.0223023499e+02 3.5042689958e+02 1.7300000000e+02 0.0000e+00 1.0000e+00
       21  1    1    2  504  501 +3.4943383106e+01 -2.6191044494e+01 -1.3536207624e+01 4.5719139881e+01 0.0000000000e+00 0.0000e+00 -1.0000e+00
       21  1    1    2  505  503 -6.8278500108e+00 -1.9808030290e+01 +4.3381493236e+02 4.3432058798e+02 0.0000000000e+00 0.0000e+00 1.0000e+00
<mgrwt>
<rscale>  4 0.18072669E+03</rscale>
<asrwt>0</asrwt>
<pdfrwt beam="1">  1       21 0.13346598E+00 0.18072669E+03</pdfrwt>
<pdfrwt beam="2">  1       21 0.24320494E-01 0.18072669E+03</pdfrwt>
<totfact> 0.65178766E+03</totfact>
</mgrwt>
</event>
<event>
 6      1 +2.5168323e+02 1.79103600e+02 7.54677100e-03 1.16820100e-01
       21 -1    0    0  505  502 +0.0000000000e+00 +0.0000000000e+00 +9.6127923652e+02 9.6127923652e+02 0.0000000000e+00 0.0000e+00 -1.0000e+00
       21 -1    0    0  501  503 -0.0000000000e+00 -0.0000000000e+00 -1.1060563226e+02 1.1060563226e+02 0.0000000000e+00 0.0000e+00 -1.0000e+00
        6  1    1    2  501    0 +2.9274802504e+01 +1.1889954347e+01 +1.8403142224e+01 1.7682211604e+02 1.7300000000e+02 0.0000e+00 -1.0000e+00
       -6  1    1    2    0  502 -4.4169067902e+00 -6.5142886835e+01 +7.1922936755e+02 7.4261900589e+02 1.7300000000e+02 0.0000e+00 -1.0000e+00
       21  1    1    2  504  503 +1.4818831103e+01 +1.4385376802e+01 -5.6398896143e+00 2.1408997544e+01 0.0000000000e+00 0.0000e+00 1.0000e+00
       21  1    1    2  505  504 -3.9676726817e+01 +3.8867555686e+01 +1.1868098411e+02 1.3103474931e+02 0.0000000000e+00 0.0000e+00 -1.0000e+00
<mgrwt>
<rscale>  4 0.17910359E+03</rscale>
<asrwt>0</asrwt>
<pdfrwt beam="1">  1       21 0.14788911E+00 0.17910359E+03</pdfrwt>
<pdfrwt beam="2">  1       21 0.17016252E-01 0.17910359E+03</pdfrwt>
<totfact> 0.97628283E+03</totfact>
</mgrwt>
</event>
<event>
 6      1 +2.5168323e+02 1.78842800e+02 7.54677100e-03 1.11910500e-01
       21 -1    0    0  501  502 +0.0000000000e+00 +0.0000000000e+00 +4.0302704137e+02 4.0302704137e+02 0.0000000000e+00 0.0000e+00 -1.0000e+00
       21 -1    0    0  505  503 -0.0000000000e+00 -0.0000000000e+00 -3.1674560991e+02 3.1674560991e+02 0.0000000000e+00 0.0000e+00 -1.0000e+00
        6  1    1    2  501    0 -8.7833128504e+01 +4.5603952714e+01 +1.0555512613e+02 2.2553328716e+02 1.7300000000e+02 0.0000e+00 -1.0000e+00
       -6  1    1    2    0  504 -3.1547614146e+01 +7.4977805351e+01 -8.8925521377e+01 2.1084039368e+02 1.7300000000e+02 0.0000e+00 -1.0000e+00
       21  1    1    2  504  503 -4.7402607290e+01 -4.4167392167e+01 -3.3493732172e+01 7.2935559252e+01 0.0000000000e+00 0.0000e+00 1.0000e+00
       21  1    1    2  505  502 +1.6678334994e+02 -7.6414365898e+01 +1.0314555887e+02 2.1046341119e+02 0.0000000000e+00 0.0000e+00 -1.0000e+00
<mgrwt>
<rscale>  4 0.17794165E+03</rscale>
<asrwt>0</asrwt>
<pdfrwt beam="1">  1       21 0.62004160E-01 0.17884278E+03</pdfrwt>
<pdfrwt beam="2">  1       21 0.48730094E-01 0.17884278E+03</pdfrwt>
<totfact> 0.97992317E+03</totfact>
</mgrwt>
</event>
<event>
 6      1 +2.5168323e+02 2.85833200e+02 7.54677100e-03 1.17132900e-01
       21 -1    0    0  505  502 +0.0000000000e+00 +0.0000000000e+00 +2.7670814014e+02 2.7670814014e+02 0.0000000000e+00 0.0000e+00 1.0000e+00
       21 -1    0    0  504  503 -0.0000000000e+00 -0.0000000000e+00 -9.0371498424e+02 9.0371498424e+02 0.0000000000e+00 0.0000e+00 1.0000e+00
        6  1    1    2  501    0 +2.0293568835e+02 -1.2351243463e+02 -2.7906365766e+02 4.0526995959e+02 1.7300000000e+02 0.0000e+00 1.0000e+00
       -6  1    1    2    0  502 +3.1023812322e+01 -6.1475220932e+01 -1.7576938929e+01 1.8702841629e+02 1.7300000000e+02 0.0000e+00 -1.0000e+00
       21  1    1    2  504  501 -3.9854162420e+01 +1.6262317035e+01 -3.2811660092e+02 3.3092796953e+02 0.0000000000e+00 0.0000e+00 1.0000e+00
       21  1    1    2  505  503 -1.9410533826e+02 +1.6872533853e+02 -2.2496465801e+00 2.5719677897e+02 0.0000000000e+00 0.0000e+00 1.0000e+00
<mgrwt>
<rscale>  4 0.25610130E+03</rscale>
<asrwt>0</asrwt>
<pdfrwt beam="1">  1       21 0.42570483E-01 0.28583322E+03</pdfrwt>
<pdfrwt beam="2">  1       21 0.13903308E+00 0.28583322E+03</pdfrwt>
<totfact> 0.17958928E+03</totfact>
</mgrwt>
</event>
<event>
 6      1 +2.5168323e+02 1.73212100e+02 7.54677100e-03 1.17132900e-01
       21 -1    0    0  505  502 +0.0000000000e+00 +0.0000000000e+00 +1.2200056801e+03 1.2200056801e+03 0.0000000000e+00 0.0000e+00 1.0000e+00
       21 -1    0    0  504  503 -0.0000000000e+00 -0.0000000000e+00 -1.6004555020e+02 1.6004555020e+02 0.0000000000e+00 0.0000e+00 1.0000e+00
        6  1    1    2  501    0 -3.6036608266e+01 +6.1865276970e+01 +5.5045090910e+02 5.8142166537e+02 1.7300000000e+02 0.0000e+00 -1.0000e+00
       -6  1    1    2    0  502 -6.3200518733e+01 +7.1059635492e+01 +4.1976212553e+02 4.6386745886e+02 1.7300000000e+02 0.0000e+00 1.0000e+00
       21  1    1    2  504  501 +7.3806841333e+01 -3.2751600705e+01 -9.4014679755e+01 1.2393093716e+02 0.0000000000e+00 0.0000e+00 1.0000e+00
       21  1    1    2  505  503 +2.5430285665e+01 -1.0017331176e+02 +1.8376177499e+02 2.1083116887e+02 0.0000000000e+00 0.0000e+00 1.0000e+00
<mgrwt>
<rscale>  4 0.17321215E+03</rscale>
<asrwt>0</asrwt>
<pdfrwt beam="1">  1       21 0.18769318E+00 0.17321215E+03</pdfrwt>
<pdfrwt beam="2">  1       21 0.24622393E-01 0.17321215E+03</pdfrwt>
<totfact> 0.25698677E+03</totfact>
</mgrwt>
</event>
<event>
 6      1 +2.5168323e+02 1.98341600e+02 7.54677100e-03 1.16820100e-01
       21 -1    0    0  501  502 +0.0000000000e+00 +0.0000000000e+00 +1.4271584915e+03 1.4271584915e+03 0.0000000000e+00 0.0000e+00 1.0000e+00
       21 -1    0    0  504  503 -0.0000000000e+00 -0.0000000000e+00 -4.8665110420e+01 4.8665110420e+01 0.0000000000e+00 0.0000e+00 1.0000e+00
        6  1    1    2  501    0 +8.0492510519e+01 +6.2772536112e+01 +9.3194774684e+02 9.5334937897e+02 1.7300000000e+02 0.0000e+00 1.0000e+00
       -6  1    1    2    0  503 -8.7319469616e+01 -2.3788692259e+01 +3.6451845432e+02 4.1351335552e+02 1.7300000000e+02 0.0000e+00 1.0000e+00
       21  1    1    2  504  505 -2.0518209204e+01 -2.1420284134e+01 +1.2452388045e+01 3.2169666603e+01 0.0000000000e+00 0.0000e+00 1.0000e+00
       21  1    1    2  505  502 +2.7345168301e+01 -1.7563559719e+01 +6.9574791826e+01 7.6791200779e+01 0.0000000000e+00 0.0000e+00 -1.0000e+00
<mgrwt>
<rscale>  4 0.19834165E+03</rscale>
<asrwt>0</asrwt>
<pdfrwt beam="1">  1       21 0.21956281E+00 0.19834165E+03</pdfrwt>
<pdfrwt beam="2">  1       21 0.74869412E-02 0.19834165E+03</pdfrwt>
<totfact> 0.13563752E+04</totfact>
</mgrwt>
</event>
<event>
 6      1 +2.5168323e+02 1.96235000e+02 7.54677100e-03 9.87464100e-02
       21 -1    0    0  503  502 +0.0000000000e+00 +0.0000000000e+00 +1.2654407277e+03 1.2654407277e+03 0.0000000000e+00 0.0000e+00 -1.0000e+00
       21 -1    0    0  505  503 -0.0000000000e+00 -0.0000000000e+00 -4.9607436650e+02 4.9607436650e+02 0.0000000000e+00 0.0000e+00 -1.0000e+00
        6  1    1    2  501    0 -1.5247441832e+01 -9.2812041784e+01 +1.2143467606e+03 1.2302087687e+03 1.7300000000e+02 0.0000e+00 -1.0000e+00
       -6  1    1    2    0  504 +1.9293227562e+01 +4.4928943475e+01 -2.1762157178e+02 2.8227466605e+02 1.7300000000e+02 0.0000e+00 -1.0000e+00
       21  1    1    2  504  502 +1.4905347050e+01 +1.8736473536e+01 -5.6317617509e+00 2.4595559592e+01 0.0000000000e+00 0.0000e+00 1.0000e+00
       21  1    1    2  505  501 -1.8951132779e+01 +2.9146624774e+01 -2.2172706588e+02 2.2443609985e+02 0.0000000000e+00 0.0000e+00 -1.0000e+00
<mgrwt>
<rscale>  4 0.19623502E+03</rscale>
<asrwt>0</asrwt>
<pdfrwt beam="1">  1       21 0.19468319E+00 0.19623502E+03</pdfrwt>
<pdfrwt beam="2">  1       21 0.76319134E-01 0.19623502E+03</pdfrwt>
<totfact> 0.22118891E+02</totfact>
</mgrwt>
</event>
<event>
 6      1 +2.5168323e+02 3.71523300e+02 7.54677100e-03 1.05831300e-01
       21 -1    0    0  504  502 +0.0000000000e+00 +0.0000000000e+00 +8.9650953342e+02 8.9650953342e+02 0.0000000000e+00 0.0000e+00 1.0000e+00
       21 -1    0    0  501  503 -0.0000000000e+00 -0.0000000000e+00 -7.5662589837e+02 7.5662589837e+02 0.0000000000e+00 0.0000e+00 -1.0000e+00
        6  1    1    2  501    0 -2.7750167371e+02 +9.0540694002e+01 +2.9956178191e+02 4.5262684119e+02 1.7300000000e+02 0.0000e+00 1.0000e+00
       -6  1    1    2    0  505 +2.3954088139e+02 -2.6330800696e+02 -4.2494530963e+02 5.8070513737e+02 1.7300000000e+02 0.0000e+00 -1.0000e+00
       21  1    1    2  504  503 -9.5801417707e+01 -6.6963606799e+01 -1.0618541951e+02 1.5791573572e+02 0.0000000000e+00 0.0000e+00 -1.0000e+00
       21  1    1    2  505  502 +1.3376221002e+02 +2.3973091976e+02 +3.7145258228e+02 4.6188771753e+02 0.0000000000e+00 0.0000e+00 -1.0000e+00
<mgrwt>
<rscale>  4 0.37152330E+03</rscale>
<asrwt>0</asrwt>
<pdfrwt beam="1">  1       21 0.13792454E+00 0.37152330E+03</pdfrwt>
<pdfrwt beam="2">  1       21 0.11640398E+00 0.37152330E+03</pdfrwt>
<totfact> 0.18030763E+02</totfact>
</mgrwt>
</event>
<event>
 6      1 +2.5168323e+02 2.33292500e+02 7.54677100e-03 1.11471900e-01
       21 -1    0    0  503  502 +0.0000000000e+00 +0.0000000000e+00 +5.8351712214e+02 5.8351712214e+02 0.0000000000e+00 0.0000e+00 1.0000e+00
       21 -1    0    0  501  503 -0.0000000000e+00 -0.0000000000e+00 -3.0916541800e+02 3.0916541800e+02 0.0000000000e+00 0.0000e+00 -1.0000e+00
        6  1    1    2  501    0 -4.2610246075e+01 -1.5369250568e+02 +1.8500671165e+02 2.9932173781e+02 1.7300000000e+02 0.0000e+00 -1.0000e+00
       -6  1    1    2    0  504 +4.2944604018e+01 +1.4980893134e+02 -1.9339031418e+02 3.0268096825e+02 1.7300000000e+02 0.0000e+00 -1.0000e+00
       21  1    1    2  504  505 -2.1575277951e+01 -7.7105048372e+00 +3.5425995837e+01 4.2189402515e+01 0.0000000000e+00 0.0000e+00 1.0000e+00
       21  1    1    2  505  502 +2.1240920008e+01 +1.1594079172e+01 +2.4730931083e+02 2.4849043157e+02 0.0000000000e+00 0.0000e+00 1.0000e+00
<mgrwt>
<rscale>  4 0.23329254E+03</rscale>
<asrwt>0</asrwt>
<pdfrwt beam="1">  1       21 0.89771865E-01 0.23329254E+03</pdfrwt>
<pdfrwt beam="2">  1       21 0.47563910E-01 0.23329254E+03</pdfrwt>
<totfact> 0.43322236E+03</totfact>
</mgrwt>
</event>
<event>
 6      1 +2.5168323e+02 2.68907000e+02 7.54677100e-03 9.87464100e-02
       21 -1    0    0  503  502 +0.0000000000e+00 +0.0000000000e+00 +6.1696555351e+02 6.1696555351e+02 0.0000000000e+00 0.0000e+00 -1.0000e+00
       21 -1    0    0  505  503 -0.0000000000e+00 -0.0000000000e+00 -2.7875825166e+02 2.7875825166e+02 0.0000000000e+00 0.0000e+00 1.0000e+00
        6  1    1    2  501    0 -1.9921900213e+02 -7.5008692368e+01 +9.0580986020e+01 2.8887441868e+02 1.7300000000e+02 0.0000e+00 1.0000e+00
       -6  1    1    2    0  504 +1.9823587603e+02 +5.4759256996e+01 +3.1424442706e+02 4.1349074804e+02 1.7300000000e+02 0.0000e+00 -1.0000e+00
       21  1    1    2  504  502 -1.6982661413e+01 +3.0235812803e+01 +5.7718060687e+01 6.7334906950e+01 0.0000000000e+00 0.0000e+00 1.0000e+00
       21  1    1    2  505  501 +1.7965787514e+01 -9.9863774315e+00 -1.2433617192e+02 1.2602373150e+02 0.0000000000e+00 0.0000e+00 1.0000e+00
<mgrwt>
<rscale>  4 0.26890703E+03</rscale>
<asrwt>0</asrwt>
<pdfrwt beam="1">  1       21 0.94917777E-01 0.26890703E+03</pdfrwt>
<pdfrwt beam="2">  1       21 0.42885885E-01 0.26890703E+03</pdfrwt>
<totfact> 0.46046331E+03</totfact>
</mgrwt>
</event>
<event>
 6      1 +2.5168323e+02 1.98876600e+02 7.54677100e-03 1.07064900e-01
       21 -1    0    0  505  502 +0.0000000000e+00 +0.0000000000e+00 +1.4102871565e+03 1.4102871565e+03 0.0000000000e+00 0.0000e+00 1.0000e+00
       21 -1    0    0  504  503 -0.0000000000e+00 -0.0000000000e+00 -4.1595932268e+02 4.1595932268e+02 0.0000000000e+00 0.0000e+00 -1.0000e+00
        6  1    1    2  501    0 +8.3668449341e+01 +7.3671494352e+01 +1.6083517921e+02 2.6119887704e+02 1.7300000000e+02 0.0000e+00 1.0000e+00
       -6  1    1    2    0  503 -5.1269361393e+01 -8.2225493079e+01 -3.3425559536e+02 3.8864557396e+02 1.7300000000e+02 0.0000e+00 -1.0000e+00
       21  1    1    2  504  502 -6.6697670534e+01 +2.3566337004e+01 +1.0595575010e+03 1.0619162158e+03 0.0000000000e+00 0.0000e+00 1.0000e+00
       21  1    1    2  505  501 +3.4298582586e+01 -1.5012338277e+01 +1.0819074898e+02 1.1448581237e+02 0.0000000000e+00 0.0000e+00 1.0000e+00
<mgrwt>
<rscale>  4 0.19887656E+03</rscale>
<asrwt>0</asrwt>
<pdfrwt beam="1">  1       21 0.21696725E+00 0.19887656E+03</pdfrwt>
<pdfrwt beam="2">  1       21 0.63993743E-01 0.19887656E+03</pdfrwt>
<totfact> 0.23481831E+02</totfact>
</mgrwt>
</event>
<event>
 6      1 +2.5168323e+02 1.80021700e+02 7.54677100e-03 1.17132900e-01
       21 -1    0    0  505  502 +0.0000000000e+00 +0.0000000000e+00 +6.8385753507e+02 6.8385753507e+02 0.0000000000e+00 0.0000e+00 1.0000e+00
       21 -1    0    0  504  503 -0.0000000000e+00 -0.0000000000e+00 -7.4586966169e+02 7.4586966169e+02 0.0000000000e+00 0.0000e+00 1.0000e+00
        6  1    1    2  501    0 -8.2792605929e+01 +2.3294261871e+01 -3.5756042142e+02 4.0641812607e+02 1.7300000000e+02 0.0000e+00 1.0000e+00
       -6  1    1    2    0  502 -2.4934844900e+01 -4.7317054874e+01 -2.1739782964e+02 2.8293367863e+02 1.7300000000e+02 0.0000e+00 1.0000e+00
       21  1    1    2  504  501 +4.8427940438e+01 +8.9659130443e+01 -8.6972155651e+01 1.3397082125e+02 0.0000000000e+00 0.0000e+00 -1.0000e+00
       21  1    1    2  505  503 +5.9299510391e+01 -6.5636337439e+01 +5.9991828009e+02 6.0640457082e+02 0.0000000000e+00 0.0000e+00 1.0000e+00
<mgrwt>
<rscale>  4 0.18002171E+03</rscale>
<asrwt>0</asrwt>
<pdfrwt beam="1">  1       21 0.10520885E+00 0.18002171E+03</pdfrwt>
<pdfrwt beam="2">  1       21 0.11474918E+00 0.18002171E+03</pdfrwt>
<totfact> 0.43498724E+02</totfact>
</mgrwt>
</event>
<event>
 6      1 +2.5168323e+02 2.05759300e+02 7.54677100e-03 1.11910500e-01
       21 -1    0    0  501  502 +0.0000000000e+00 +0.0000000000e+00 +5.6010835612e+02 5.6010835612e+02 0.0000000000e+00 0.0000e+00 1.0000e+00
       21 -1    0    0  505  503 -0.0000000000e+00 -0.0000000000e+00 -3.3172692024e+02 3.3172692024e+02 0.0000000000e+00 0.0000e+00 1.0000e+00
        6  1    1    2  501    0 -1.0662277519e+02 -7.2961533439e+00 +4.3756302793e+02 4.8250601390e+02 1.7300000000e+02 0.0000e+00 1.0000e+00
       -6  1    1    2    0  504 +1.3727011051e+02 +2.6833954593e+01 -4.6973480051e+01 2.2737337616e+02 1.7300000000e+02 0.0000e+00 1.0000e+00
       21  1    1    2  504  503 -1.8196931544e+01 +1.3873777428e+01 -8.8940986180e+00 2.4550254744e+01 0.0000000000e+00 0.0000e+00 1.0000e+00
       21  1    1    2  505  502 -1.2450403779e+01 -3.3411578677e+01 -1.5331401338e+02 1.5740563155e+02 0.0000000000e+00 0.0000e+00 1.0000e+00
<mgrwt>
<rscale>  4 0.20575926E+03</rscale>
<asrwt>0</asrwt>
<pdfrwt beam="1">  1       21 0.86170516E-01 0.20575926E+03</pdfrwt>
<pdfrwt beam="2">  1       21 0.51034911E-01 0.20575926E+03</pdfrwt>
<totfact> 0.41954315E+03</totfact>
</mgrwt>
</event>
<event>
 6      1 +2.5168323e+02 2.83096000e+02 7.54677100e-03 1.11671100e-01
       21 -1    0    0  503  502 +0.0000000000e+00 +0.0000000000e+00 +5.4845728586e+02 5.4845728586e+02 0.0000000000e+00 0.0000e+00 1.0000e+00
       21 -1    0    0  501  503 -0.0000000000e+00 -0.0000000000e+00 -3.5087520301e+02 3.5087520301e+02 0.0000000000e+00 0.0000e+00 1.0000e+00
        6  1    1    2  501    0 -6.4086829860e+00 +2.1013634490e+01 -1.7569809654e+02 2.4755093452e+02 1.7300000000e+02 0.0000e+00 1.0000e+00
       -6  1    1    2    0  504 +1.2453714669e+02 +1.8147902671e+02 +1.4928737637e+02 3.1726937890e+02 1.7300000000e+02 0.0000e+00 -1.0000e+00
       21  1    1    2  504  505 -9.7068882891e+01 -2.0367407253e+02 +2.1474309335e+02 3.1148048412e+02 0.0000000000e+00 0.0000e+00 1.0000e+00
       21  1    1    2  505  502 -2.1059580813e+01 +1.1814113244e+00 +9.2497096753e+00 2.3031691337e+01 0.0000000000e+00 0.0000e+00 1.0000e+00
<mgrwt>
<rscale>  4 0.25082590E+03</rscale>
<asrwt>0</asrwt>
<pdfrwt beam="1">  1       21 0.84378044E-01 0.28309599E+03</pdfrwt>
<pdfrwt beam="2">  1       21 0.53980800E-01 0.28309599E+03</pdfrwt>
<totfact> 0.37149274E+03</totfact>
</mgrwt>
</event>
<event>
 6      1 +2.5168323e+02 1.94535500e+02 7.54677100e-03 1.09842800e-01
       21 -1    0    0  503  502 +0.0000000000e+00 +0.0000000000e+00 +2.1090836692e+03 2.1090836692e+03 0.0000000000e+00 0.0000e+00 -1.0000e+00
       21 -1    0    0  501  503 -0.0000000000e+00 -0.0000000000e+00 -1.3090037634e+02 1.3090037634e+02 0.0000000000e+00 0.0000e+00 1.0000e+00
        6  1    1    2  501    0 -8.6122999804e+01 -1.0073023351e+01 +9.6406469406e+01 2.1619862219e+02 1.7300000000e+02 0.0000e+00 1.0000e+00
       -6  1    1    2    0  504 +5.6489457643e+01 +9.8542509068e+01 +1.3595915071e+02 2.4761982065e+02 1.7300000000e+02 0.0000e+00 -1.0000e+00
       21  1    1    2  504  505 +2.8084613459e+01 -4.7407478457e+01 +3.5923475842e+01 6.5777736684e+01 0.0000000000e+00 0.0000e+00 1.0000e+00
       21  1    1    2  505  502 +1.5489287021e+00 -4.1062007260e+01 +1.7098941969e+03 1.7103878661e+03 0.0000000000e+00 0.0000e+00 -1.0000e+00
<mgrwt>
<rscale>  4 0.19453547E+03</rscale>
<asrwt>0</asrwt>
<pdfrwt beam="1">  1       21 0.32447439E+00 0.19453547E+03</pdfrwt>
<pdfrwt beam="2">  1       21 0.20138521E-01 0.19453547E+03</pdfrwt>
<totfact> 0.56027922E+02</totfact>
</mgrwt>
</event>
<event>
 6      1 +2.5168323e+02 1.96384500e+02 7.54677100e-03 1.12068800e-01
       21 -1    0    0  504  502 +0.0000000000e+00 +0.0000000000e+00 +2.5222444333e+02 2.5222444333e+02 0.0000000000e+00 0.0000e+00 1.0000e+00
       21 -1    0    0  502  503 -0.0000000000e+00 -0.0000000000e+00 -6.4222738076e+02 6.4222738076e+02 0.0000000000e+00 0.0000e+00 -1.0000e+00
        6  1    1    2  501    0 -1.5553102632e+02 +7.6635843036e+01 -1.1583674574e+02 2.7094299077e+02 1.7300000000e+02 0.0000e+00 1.0000e+00
       -6  1    1    2    0  505 +3.8274998877e+01 -6.4123481793e+01 +1.0367740218e+02 2.1506929157e+02 1.7300000000e+02 0.0000e+00 1.0000e+00
       21  1    1    2  504  501 +1.3162018363e+02 -2.6762959658e+01 -3.1567150591e+02 3.4305776248e+02 0.0000000000e+00 0.0000e+00 -1.0000e+00
       21  1    1    2  505  503 -1.4364156189e+01 +1.4250598415e+01 -6.2172087959e+01 6.5381779261e+01 0.0000000000e+00 0.0000e+00 -1.0000e+00
<mgrwt>
<rscale>  4 0.19638453E+03</rscale>
<asrwt>0</asrwt>
<pdfrwt beam="1">  1       21 0.38803760E-01 0.19638453E+03</pdfrwt>
<pdfrwt beam="2">  1       21 0.98804214E-01 0.19638453E+03</pdfrwt>
<totfact> 0.53932448E+03</totfact>
</mgrwt>
</event>
<event>
 6      1 +2.5168323e+02 2.58245600e+02 7.54677100e-03 1.06249800e-01
       21 -1    0    0  505  502 +0.0000000000e+00 +0.0000000000e+00 +1.8187854924e+02 1.8187854924e+02 0.0000000000e+00 0.0000e+00 -1.0000e+00
       21 -1    0    0  501  503 -0.0000000000e+00 -0.0000000000e+00 -1.3830101654e+03 1.3830101654e+03 0.0000000000e+00 0.0000e+00 -1.0000e+00
        6  1    1    2  501    0 -3.0521978222e+02 +5.1660493317e+01 -6.4869757172e+02 7.3930065709e+02 1.7300000000e+02 0.0000e+00 -1.0000e+00
       -6  1    1    2    0  502 +1.4075252682e+02 +5.6131072599e+00 -5.9788388693e+02 6.3815117568e+02 1.7300000000e+02 0.0000e+00 -1.0000e+00
       21  1    1    2  504  503 +3.4621486743e+01 -3.6532562810e+01 +1.1354601955e+01 5.1596535497e+01 0.0000000000e+00 0.0000e+00 -1.0000e+00
       21  1    1    2  505  504 +1.2984576865e+02 -2.0741037768e+01 +3.4095240499e+01 1.3584034640e+02 0.0000000000e+00 0.0000e+00 -1.0000e+00
<mgrwt>
<rscale>  4 0.25824561E+03</rscale>
<asrwt>0</asrwt>
<pdfrwt beam="1">  1       21 0.27981316E-01 0.25824561E+03</pdfrwt>
<pdfrwt beam="2">  1       21 0.21277079E+00 0.25824561E+03</pdfrwt>
<totfact> 0.12758253E+03</totfact>
</mgrwt>
</event>
<event>
 6      1 +2.5168323e+02 2.14962800e+02 7.54677100e-03 1.11910500e-01
       21 -1    0    0  501  502 +0.0000000000e+00 +0.0000000000e+00 +1.7462095478e+03 1.7462095478e+03 0.0000000000e+00 0.0000e+00 1.0000e+00
       21 -1    0    0  505  503 -0.0000000000e+00 -0.0000000000e+00 -9.1527748119e+02 9.1527748119e+02 0.0000000000e+00 0.0000e+00 1.0000e+00
        6  1    1    2  501    0 +7.0102980331e+01 -1.0968578618e+02 +1.6306224695e+03 1.6449328368e+03 1.7300000000e+02 0.0000e+00 1.0000e+00
       -6  1    1    2    0  504 -6.5788168969e+01 +6.8594005943e+01 +7.5283338862e+00 1.9753201421e+02 1.7300000000e+02 0.0000e+00 1.0000e+00
       21  1    1    2  504  503 +2.5477564493e+01 +1.9433158685e+00 -2.6706375591e+01 3.6960969499e+01 0.0000000000e+00 0.0000e+00 -1.0000e+00
       21  1    1    2  505  502 -2.9792375855e+01 +3.9148464366e+01 -7.8051236116e+02 7.8206120850e+02 0.0000000000e+00 0.0000e+00 1.0000e+00
<mgrwt>
<rscale>  4 0.21496285E+03</rscale>
<asrwt>0</asrwt>
<pdfrwt beam="1">  1       21 0.26864762E+00 0.21496285E+03</pdfrwt>
<pdfrwt beam="2">  1       21 0.14081192E+00 0.21496285E+03</pdfrwt>
<totfact> 0.17544936E+01</totfact>
</mgrwt>
</event>
<event>
 6      1 +2.5168323e+02 1.84839000e+02 7.54677100e-03 1.17132900e-01
       21 -1    0    0  505  502 +0.0000000000e+00 +0.0000000000e+00 +1.5289404129e+03 1.5289404129e+03 0.0000000000e+00 0.0000e+00 1.0000e+00
       21 -1    0    0  504  503 -0.0000000000e+00 -0.0000000000e+00 -5.1848875409e+02 5.1848875409e+02 0.0000000000e+00 0.0000e+00 1.0000e+00
        6  1    1    2  501    0 +1.2560685412e+01 +1.2810541464e+02 +7.1233612569e+02 7.4425837183e+02 1.7300000000e+02 0.0000e+00 1.0000e+00
       -6  1    1    2    0  502 +3.9675948430e+00 +2.9938035651e+00 +4.2296776394e+02 4.5700703933e+02 1.7300000000e+02 0.0000e+00 -1.0000e+00
       21  1    1    2  504  501 -1.6108488705e+01 -1.5533723562e+02 -4.7251643532e+02 4.9765542479e+02 0.0000000000e+00 0.0000e+00 1.0000e+00
       21  1    1    2  505  503 -4.1979155004e-01 +2.4238017416e+01 +3.4766420452e+02 3.4850833106e+02 0.0000000000e+00 0.0000e+00 1.0000e+00
<mgrwt>
<rscale>  4 0.18483900E+03</rscale>
<asrwt>0</asrwt>
<pdfrwt beam="1">  1       21 0.23522160E+00 0.18483900E+03</pdfrwt>
<pdfrwt beam="2">  1       21 0.79767502E-01 0.18483900E+03</pdfrwt>
<totfact> 0.11398928E+02</totfact>
</mgrwt>
</event>
<event>
 6      1 +2.5168323e+02 1.85343700e+02 7.54677100e-03 1.07064900e-01
       21 -1    0    0  505  502 +0.0000000000e+00 +0.0000000000e+00 +1.9991583307e+02 1.9991583307e+02 0.0000000000e+00 0.0000e+00 1.0000e+00
       21 -1    0    0  504  503 -0.0000000000e+00 -0.0000000000e+00 -3.8567897321e+02 3.8567897321e+02 0.0000000000e+00 0.0000e+00 1.0000e+00
        6  1    1    2  501    0 -8.3084675356e+00 +2.7233441871e+01 -9.9851603849e+01 2.0176727629e+02 1.7300000000e+02 0.0000e+00 1.0000e+00
       -6  1    1    2    0  503 +5.3738613807e+01 -1.0357942611e+02 -9.6848405728e+01 2.3005466702e+02 1.7300000000e+02 0.0000e+00 -1.0000e+00
       21  1    1    2  504  502 -3.4278158088e+01 +1.1071971151e+02 -3.7896655134e-01 1.1590509158e+02 0.0000000000e+00 0.0000e+00 1.0000e+00
       21  1    1    2  505  501 -1.1151988183e+01 -3.4373727265e+01 +1.1315835986e+01 3.7867771397e+01 0.0000000000e+00 0.0000e+00 -1.0000e+00
<mgrwt>
<rscale>  4 0.18534371E+03</rscale>
<asrwt>0</asrwt>
<pdfrwt beam="1">  1       21 0.30756282E-01 0.18534371E+03</pdfrwt>
<pdfrwt beam="2">  1       21 0.59335226E-01 0.18534371E+03</pdfrwt>
<totfact> 0.27047910E+04</totfact>
</mgrwt>
</event>
<event>
 6      1 +2.5168323e+02 6.24545200e+02 7.54677100e-03 1.11671100e-01
       21 -1    0    0  503  502 +0.0000000000e+00 +0.0000000000e+00 +3.8268906374e+02 3.8268906374e+02 0.0000000000e+00 0.0000e+00 -1.0000e+00
       21 -1    0    0  501  503 -0.0000000000e+00 -0.0000000000e+00 -1.1841209817e+03 1.1841209817e+03 0.0000000000e+00 0.0000e+00 -1.0000e+00
        6  1    1    2  501    0 -1.0809768242e+01 -2.7765268773e+02 -8.8597529682e+01 3.3909642929e+02 1.7300000000e+02 0.0000e+00 -1.0000e+00
       -6  1    1    2    0  504 -1.0169286434e+02 -1.8835921085e+02 +2.5227754802e+01 2.7638030064e+02 1.7300000000e+02 0.0000e+00 1.0000e+00
       21  1    1    2  504  505 +1.5140680598e+02 +4.7607960068e+02 -7.5693823704e+02 9.0693511442e+02 0.0000000000e+00 0.0000e+00 -1.0000e+00
       21  1    1    2  505  502 -3.8904173400e+01 -1.0067702099e+01 +1.8876093979e+01 4.4398201060e+01 0.0000000000e+00 0.0000e+00 1.0000e+00
<mgrwt>
<rscale>  4 0.62454518E+03</rscale>
<asrwt>0</asrwt>
<pdfrwt beam="1">  1       21 0.58875242E-01 0.62454518E+03</pdfrwt>
<pdfrwt beam="2">  1       21 0.18217246E+00 0.62454518E+03</pdfrwt>
<totfact> 0.36359497E+02</totfact>
</mgrwt>
</event>
<event>
 6      1 +2.5168323e+02 4.65772400e+02 7.54677100e-03 1.16820100e-01
       21 -1    0    0  504  502 +0.0000000000e+00 +0.0000000000e+00 +8.1534607994e+02 8.1534607994e+02 0.0000000000e+00 0.0000e+00 -1.0000e+00
       21 -1    0    0  501  503 -0.0000000000e+00 -0.0000000000e+00 -4.1797349344e+02 4.1797349344e+02 0.0000000000e+00 0.0000e+00 1.0000e+00
        6  1    1    2  501    0 -5.5428861076e+01 -1.2477479998e+01 -6.3191070959e+01 1.9274376150e+02 1.7300000000e+02 0.0000e+00 1.0000e+00
       -6  1    1    2    0  505 -8.4077588349e+01 -1.1480753183e+02 +2.8549035574e+01 2.2581819603e+02 1.7300000000e+02 0.0000e+00 -1.0000e+00
       21  1    1    2  504  503 -1.0479893843e+02 -3.8513334565e+01 -1.3517384056e+02 1.7532273557e+02 0.0000000000e+00 0.0000e+00 1.0000e+00
       21  1    1    2  505  502 +2.4430538786e+02 +1.6579834639e+02 +5.6718846244e+02 6.3943488029e+02 0.0000000000e+00 0.0000e+00 -1.0000e+00
<mgrwt>
<rscale>  4 0.46577243E+03</rscale>
<asrwt>0</asrwt>
<pdfrwt beam="1">  1       21 0.12543786E+00 0.46577243E+03</pdfrwt>
<pdfrwt beam="2">  1       21 0.64303615E-01 0.46577243E+03</pdfrwt>
<totfact> 0.88683333E+02</totfact>
</mgrwt>
</event>
<event>
 6      1 +2.5168323e+02 2.19074500e+02 7.54677100e-03 1.07240600e-01
       21 -1    0    0  505  502 +0.0000000000e+00 +0.0000000000e+00 +2.3592370646e+02 2.3592370646e+02 0.0000000000e+00 0.0000e+00 1.0000e+00
       21 -1    0    0  504  503 -0.0000000000e+00 -0.0000000000e+00 -2.5371252203e+03 2.5371252203e+03 0.0000000000e+00 0.0000e+00 1.0000e+00
        6  1    1    2  501    0 -1.3040339075e+02 -1.0889549679e+02 -1.6779472391e+03 1.6953758317e+03 1.7300000000e+02 0.0000e+00 1.0000e+00
       -6  1    1    2    0  502 +1.0237744962e+02 +8.5349197048e+01 +1.7148998386e+02 2.7767506585e+02 1.7300000000e+02 0.0000e+00 1.0000e+00
       21  1    1    2  504  501 +2.1224778391e+01 -2.9261972226e+01 -2.4041363517e+02 2.4311616608e+02 0.0000000000e+00 0.0000e+00 1.0000e+00
       21  1    1    2  505  503 +6.8011627340e+00 +5.2808271963e+01 -5.5433062346e+02 5.5688186316e+02 0.0000000000e+00 0.0000e+00 1.0000e+00
<mgrwt>
<rscale>  4 0.21907454E+03</rscale>
<asrwt>0</asrwt>
<pdfrwt beam="1">  1       21 0.36295955E-01 0.21907454E+03</pdfrwt>
<pdfrwt beam="2">  1       21 0.39032696E+00 0.21907454E+03</pdfrwt>
<totfact> 0.69898910E+01</totfact>
</mgrwt>
</event>
<event>
 6      1 +2.5168323e+02 1.99397900e+02 7.54677100e-03 1.16820100e-01
       21 -1    0    0  505  502 +0.0000000000e+00 +0.0000000000e+00 +2.3652749857e+02 2.3652749857e+02 0.0000000000e+00 0.0000e+00 1.0000e+00
       21 -1    0    0  504  503 -0.0000000000e+00 -0.0000000000e+00 -7.8163387153e+02 7.8163387153e+02 0.0000000000e+00 0.0000e+00 1.0000e+00
        6  1    1    2  501    0 -3.0252484029e+01 -7.2818679906e+01 -1.6627049680e+02 2.5257207098e+02 1.7300000000e+02 0.0000e+00 1.0000e+00
       -6  1    1    2    0  503 +4.3399642601e+01 +9.5888073210e+01 -4.0057152601e+02 4.4884808010e+02 1.7300000000e+02 0.0000e+00 1.0000e+00
       21  1    1    2  504  502 +2.6244970113e+01 +2.4337276454e+00 -1.4302222441e+02 1.4543066445e+02 0.0000000000e+00 0.0000e+00 1.0000e+00
       21  1    1    2  505  501 -3.9392128685e+01 -2.5503120949e+01 +1.6475787425e+02 1.7131055457e+02 0.0000000000e+00 0.0000e+00 1.0000e+00
<mgrwt>
<rscale>  4 0.19939788E+03</rscale>
<asrwt>0</asrwt>
<pdfrwt beam="1">  1       21 0.36388846E-01 0.19939788E+03</pdfrwt>
<pdfrwt beam="2">  1       21 0.12025136E+00 0.19939788E+03</pdfrwt>
<totfact> 0.38046078E+03</totfact>
</mgrwt>
</event>
<event>
 6      1 +2.5168323e+02 1.74064200e+02 7.54677100e-03 1.03924000e-01
       21 -1    0    0  504  502 +0.0000000000e+00 +0.0000000000e+00 +2.9435194475e+02 2.9435194475e+02 0.0000000000e+00 0.0000e+00 1.0000e+00
       21 -1    0    0  501  503 -0.0000000000e+00 -0.0000000000e+00 -3.9170700593e+02 3.9170700593e+02 0.0000000000e+00 0.0000e+00 1.0000e+00
        6  1    1    2  501    0 -2.7602727282e+01 -8.1972188131e+01 -1.1393523698e+02 2.2448070832e+02 1.7300000000e+02 0.0000e+00 1.0000e+00
       -6  1    1    2    0  505 -9.4913508225e-01 -3.0296605512e+01 -1.6092679566e+02 2.3821254947e+02 1.7300000000e+02 0.0000e+00 -1.0000e+00
       21  1    1    2  504  503 -1.9312002269e+01 +1.0127410791e+01 +1.9685585832e+01 2.9377545346e+01 0.0000000000e+00 0.0000e+00 1.0000e+00
       21  1    1    2  505  502 +4.7863864633e+01 +1.0214138285e+02 +1.5782138562e+02 1.9398814755e+02 0.0000000000e+00 0.0000e+00 1.0000e+00
<mgrwt>
<rscale>  4 0.17406424E+03</rscale>
<asrwt>0</asrwt>
<pdfrwt beam="1">  1       21 0.45284915E-01 0.17406424E+03</pdfrwt>
<pdfrwt beam="2">  1       21 0.60262616E-01 0.17406424E+03</pdfrwt>
<totfact> 0.12159184E+04</totfact>
</mgrwt>
</event>
<event>
 6      1 +2.5168323e+02 2.07556600e+02 7.54677100e-03 1.12989000e-01
       21 -1    0    0  501  502 +0.0000000000e+00 +0.0000000000e+00 +6.4753437535e+02 6.4753437535e+02 0.0000000000e+00 0.0000e+00 -1.0000e+00
       21 -1    0    0  502  503 -0.0000000000e+00 -0.0000000000e+00 -2.1755559190e+02 2.1755559190e+02 0.0000000000e+00 0.0000e+00 1.0000e+00
        6  1    1    2  501    0 +2.4231371674e+01 +8.0050753275e+01 +2.6934671614e+01 1.9403545812e+02 1.7300000000e+02 0.0000e+00 1.0000e+00
       -6  1    1    2    0  504 -1.3210000299e+02 -2.6335447325e+01 +4.7864257099e+02 5.2647096533e+02 1.7300000000e+02 0.0000e+00 -1.0000e+00
       21  1    1    2  504  505 +2.5108342654e+01 -2.8168505842e+00 -2.2656909179e+01 3.3936691819e+01 0.0000000000e+00 0.0000e+00 1.0000e+00
       21  1    1    2  505  503 +8.2760288661e+01 -5.0898455366e+01 -5.2941549980e+01 1.1064685198e+02 0.0000000000e+00 0.0000e+00 1.0000e+00
<mgrwt>
<rscale>  4 0.20755662E+03</rscale>
<asrwt>0</asrwt>
<pdfrwt beam="1">  1       21 0.99620672E-01 0.20755662E+03</pdfrwt>
<pdfrwt beam="2">  1       21 0.33470091E-01 0.20755662E+03</pdfrwt>
<totfact> 0.70436638E+03</totfact>
</mgrwt>
</event>
<event>
 6      1 +2.5168323e+02 1.80068900e+02 7.54677100e-03 9.82877400e-02
       21 -1    0    0  505  502 +0.0000000000e+00 +0.0000000000e+00 +1.7776885523e+03 1.7776885523e+03 0.0000000000e+00 0.0000e+00 -1.0000e+00
       21 -1    0    0  502  503 -0.0000000000e+00 -0.0000000000e+00 -9.6826652382e+01 9.6826652382e+01 0.0000000000e+00 0.0000e+00 -1.0000e+00
        6  1    1    2  501    0 -8.6454594878e+01 +4.1886166592e+01 +8.9452332824e+01 2.1716253769e+02 1.7300000000e+02 0.0000e+00 1.0000e+00
       -6  1    1    2    0  504 -1.0533952078e+02 +5.3820937038e+00 +4.5367150864e+02 4.9686237463e+02 1.7300000000e+02 0.0000e+00 -1.0000e+00
       21  1    1    2  504  503 +1.6486350353e+02 -6.0494527390e+01 +6.9880976334e+02 7.2053774917e+02 0.0000000000e+00 0.0000e+00 -1.0000e+00
       21  1    1    2  505  501 +2.6930612134e+01 +1.3226267094e+01 +4.3892829512e+02 4.3995254320e+02 0.0000000000e+00 0.0000e+00 1.0000e+00
<mgrwt>
<rscale>  4 0.18006891E+03</rscale>
<asrwt>0</asrwt>
<pdfrwt beam="1">  1       21 0.27349052E+00 0.18006891E+03</pdfrwt>
<pdfrwt beam="2">  1       21 0.14896409E-01 0.18006891E+03</pdfrwt>
<totfact> 0.19582197E+03</totfact>
</mgrwt>
</event>
<event>
 6      1 +2.5168323e+02 2.19002000e+02 7.54677100e-03 1.16820100e-01
       21 -1    0    0  505  502 +0.0000000000e+00 +0.0000000000e+00 +7.9362295294e+01 7.9362295294e+01 0.0000000000e+00 0.0000e+00 -1.0000e+00
       21 -1    0    0  501  503 -0.0000000000e+00 -0.0000000000e+00 -1.1120857038e+03 1.1120857038e+03 0.0000000000e+00 0.0000e+00 -1.0000e+00
        6  1    1    2  501    0 +9.8049977819e+01 +1.1724314066e+02 -7.2136645384e+02 7.5740234546e+02 1.7300000000e+02 0.0000e+00 -1.0000e+00
       -6  1    1    2    0  502 -7.0108386135e+01 -1.0328986040e+02 -1.5668789625e+02 2.6469619925e+02 1.7300000000e+02 0.0000e+00 -1.0000e+00
       21  1    1    2  504  503 -8.4309997570e+00 -2.1839443363e+01 -1.4374516072e+02 1.4563898610e+02 0.0000000000e+00 0.0000e+00 -1.0000e+00
       21  1    1    2  505  504 -1.9510591927e+01 +7.8861631045e+00 -1.0923897732e+01 2.3710468311e+01 0.0000000000e+00 0.0000e+00 -1.0000e+00
<mgrwt>
<rscale>  4 0.21900203E+03</rscale>
<asrwt>0</asrwt>
<pdfrwt beam="1">  1       21 0.12209584E-01 0.21900203E+03</pdfrwt>
<pdfrwt beam="2">  1       21 0.17109011E+00 0.21900203E+03</pdfrwt>
<totfact> 0.11695749E+04</totfact>
</mgrwt>
</event>
<event>
 6      1 +2.5168323e+02 1.76364000e+02 7.54677100e-03 1.17132900e-01
       21 -1    0    0  505  502 +0.0000000000e+00 +0.0000000000e+00 +1.3202795760e+03 1.3202795760e+03 0.0000000000e+00 0.0000e+00 -1.0000e+00
       21 -1    0    0  504  503 -0.0000000000e+00 -0.0000000000e+00 -1.0688484007e+02 1.0688484007e+02 0.0000000000e+00 0.0000e+00 -1.0000e+00
        6  1    1    2  501    0 +2.2111655960e+01 -7.1239959513e+01 +3.8380393109e+02 4.2754942952e+02 1.7300000000e+02 0.0000e+00 -1.0000e+00
       -6  1    1    2    0  502 +2.7038606222e+01 +3.5770290516e+01 +5.9233353609e+01 1.8827689739e+02 1.7300000000e+02 0.0000e+00 1.0000e+00
       21  1    1    2  504  501 +4.7357382602e-01 -2.7269040642e+01 -8.3578809143e+00 2.8525059563e+01 0.0000000000e+00 0.0000e+00 -1.0000e+00
       21  1    1    2  505  503 -4.9623836008e+01 +6.2738709639e+01 +7.7871533212e+02 7.8281302957e+02 0.0000000000e+00 0.0000e+00 -1.0000e+00
<mgrwt>
<rscale>  4 0.17636402E+03</rscale>
<asrwt>0</asrwt>
<pdfrwt beam="1">  1       21 0.20311992E+00 0.17636402E+03</pdfrwt>
<pdfrwt beam="2">  1       21 0.16443822E-01 0.17636402E+03</pdfrwt>
<totfact> 0.43215866E+03</totfact>
</mgrwt>
</event>
<event>
 6      1 +2.5168323e+02 2.19948400e+02 7.54677100e-03 1.16820100e-01
       21 -1    0    0  505  502 +0.0000000000e+00 +0.0000000000e+00 +1.9101799692e+03 1.9101799692e+03 0.0000000000e+00 0.0000e+00 1.0000e+00
       21 -1    0    0  504  503 -0.0000000000e+00 -0.0000000000e+00 -4.9230375157e+02 4.9230375157e+02 0.0000000000e+00 0.0000e+00 -1.0000e+00
        6  1    1    2  501    0 +1.6195436516e+02 -1.7880949676e+01 +4.8902315787e+02 5.4371094682e+02 1.7300000000e+02 0.0000e+00 1.0000e+00
       -6  1    1    2    0  503 -1.4311279549e+02 -8.6821261161e+01 -1.8185082955e+02 3.0169177621e+02 1.7300000000e+02 0.0000e+00 -1.0000e+00
       21  1    1    2  504  502 +1.3112078774e+01 +1.1152595316e+02 -2.0884872069e+02 2.3712391902e+02 0.0000000000e+00 0.0000e+00 -1.0000e+00
       21  1    1    2  505  501 -3.1953648447e+01 -6.8237423231e+00 +1.3195526100e+03 1.3199570787e+03 0.0000000000e+00 0.0000e+00 1.0000e+00
<mgrwt>
<rscale>  4 0.21994840E+03</rscale>
<asrwt>0</asrwt>
<pdfrwt beam="1">  1       21 0.29387384E+00 0.21994840E+03</pdfrwt>
<pdfrwt beam="2">  1       21 0.75739040E-01 0.21994840E+03</pdfrwt>
<totfact> 0.55111806E+01</totfact>
</mgrwt>
</event>
<event>
 6      1 +2.5168323e+02 2.41444800e+02 7.54677100e-03 1.16820100e-01
       21 -1    0    0  505  502 +0.0000000000e+00 +0.0000000000e+00 +1.0410502165e+02 1.0410502165e+02 0.0000000000e+00 0.0000e+00 1.0000e+00
       21 -1    0    0  501  503 -0.0000000000e+00 -0.0000000000e+00 -1.9876961816e+03 1.9876961816e+03 0.0000000000e+00 0.0000e+00 1.0000e+00
        6  1    1    2  501    0 -1.0630933429e+02 -1.1461641601e+02 -3.1855486450e+02 3.9477183166e+02 1.7300000000e+02 0.0000e+00 -1.0000e+00
       -6  1    1    2    0  502 +1.2885967179e+02 +1.2083458363e+02 -1.8021146099e+02 3.0595911866e+02 1.7300000000e+02 0.0000e+00 1.0000e+00
       21  1    1    2  504  503 -8.3437252560e+00 -2.3004842346e+01 -1.3476904353e+03 1.3479125898e+03 0.0000000000e+00 0.0000e+00 1.0000e+00
       21  1    1    2  505  504 -1.4206612248e+01 +1.6786674727e+01 -3.7134399173e+01 4.3157663073e+01 0.0000000000e+00 0.0000e+00 -1.0000e+00
<mgrwt>
<rscale>  4 0.24144477E+03</rscale>
<asrwt>0</asrwt>
<pdfrwt beam="1">  1       21 0.16016158E-01 0.24144477E+03</pdfrwt>
<pdfrwt beam="2">  1       21 0.30579939E+00 0.24144477E+03</pdfrwt>
<totfact> 0.10364504E+03</totfact>
</mgrwt>
</event>
<event>
 6      1 +2.5168323e+02 2.06890800e+02 7.54677100e-03 1.11910500e-01
       21 -1    0    0  501  502 +0.0000000000e+00 +0.0000000000e+00 +4.1241623436e+01 4.1241623436e+01 0.0000000000e+00 0.0000e+00 1.0000e+00
       21 -1    0    0  504  503 -0.0000000000e+00 -0.0000000000e+00 -1.4542302932e+03 1.4542302932e+03 0.0000000000e+00 0.0000e+00 1.0000e+00
        6  1    1    2  501    0 +7.0045142750e+01 -5.8006228352e+01 -6.7787910750e+02 7.0549282699e+02 1.7300000000e+02 0.0000e+00 1.0000e+00
       -6  1    1    2    0  503 -1.0423138378e+02 +7.5858334353e+01 -4.4719953900e+02 4.9652300645e+02 1.7300000000e+02 0.0000e+00 1.0000e+00
       21  1    1    2  504  505 +1.2101935938e+01 -2.4427393775e+01 -2.2130822364e+02 2.2298090562e+02 0.0000000000e+00 0.0000e+00 -1.0000e+00
       21  1    1    2  505  502 +2.2084305096e+01 +6.5752877735e+00 -6.6601799667e+01 7.0475177615e+01 0.0000000000e+00 0.0000e+00 -1.0000e+00
<mgrwt>
<rscale>  4 0.20689085E+03</rscale>
<asrwt>0</asrwt>
<pdfrwt beam="1">  1       21 0.63448641E-02 0.20689085E+03</pdfrwt>
<pdfrwt beam="2">  1       21 0.22372777E+00 0.20689085E+03</pdfrwt>
<totfact> 0.16903604E+04</totfact>
</mgrwt>
</event>
<event>
 6      1 +2.5168323e+02 3.08241400e+02 7.54677100e-03 1.11471900e-01
       21 -1    0    0  503  502 +0.0000000000e+00 +0.0000000000e+00 +2.1502232885e+03 2.1502232885e+03 0.0000000000e+00 0.0000e+00 -1.0000e+00
       21 -1    0    0  501  503 -0.0000000000e+00 -0.0000000000e+00 -7.5558138368e+02 7.5558138368e+02 0.0000000000e+00 0.0000e+00 -1.0000e+00
        6  1    1    2  501    0 +9.9109210448e+00 -2.5335781101e+02 -6.8346753924e+02 7.4922979383e+02 1.7300000000e+02 0.0000e+00 -1.0000e+00
       -6  1    1    2    0  504 -2.6798674239e+01 +2.9006737218e+02 +7.1463757809e+02 7.9088122835e+02 1.7300000000e+02 0.0000e+00 -1.0000e+00
       21  1    1    2  504  505 +2.7231952063e+01 +7.8158319836e+00 +3.3095998163e+02 3.3217040188e+02 0.0000000000e+00 0.0000e+00 -1.0000e+00
       21  1    1    2  505  502 -1.0344198869e+01 -4.4525393152e+01 +1.0325118844e+03 1.0335232481e+03 0.0000000000e+00 0.0000e+00 1.0000e+00
<mgrwt>
<rscale>  4 0.30824145E+03</rscale>
<asrwt>0</asrwt>
<pdfrwt beam="1">  1       21 0.33080358E+00 0.30824145E+03</pdfrwt>
<pdfrwt beam="2">  1       21 0.11624329E+00 0.30824145E+03</pdfrwt>
<totfact> 0.10808634E+01</totfact>
</mgrwt>
</event>
<event>
 6      1 +2.5168323e+02 3.45740800e+02 7.54677100e-03 1.05831300e-01
       21 -1    0    0  504  502 +0.0000000000e+00 +0.0000000000e+00 +4.0851879942e+02 4.0851879942e+02 0.0000000000e+00 0.0000e+00 -1.0000e+00
       21 -1    0    0  501  503 -0.0000000000e+00 -0.0000000000e+00 -1.1438168120e+03 1.1438168120e+03 0.0000000000e+00 0.0000e+00 1.0000e+00
        6  1    1    2  501    0 +2.3244845335e+01 +2.5124121440e+02 -5.9817139548e+02 6.7186344522e+02 1.7300000000e+02 0.0000e+00 1.0000e+00
       -6  1    1    2    0  505 -5.1012169678e+01 +4.2493884360e+01 -3.6107931293e+02 4.0585125587e+02 1.7300000000e+02 0.0000e+00 1.0000e+00
       21  1    1    2  504  503 +2.1803911090e+01 +1.0653659500e+01 -5.5995568861e+01 6.1027983185e+01 0.0000000000e+00 0.0000e+00 1.0000e+00
       21  1    1    2  505  502 +5.9634132522e+00 -3.0438875826e+02 +2.7994826472e+02 4.1359292713e+02 0.0000000000e+00 0.0000e+00 -1.0000e+00
<mgrwt>
<rscale>  4 0.29539902E+03</rscale>
<asrwt>0</asrwt>
<pdfrwt beam="1">  1       21 0.62849047E-01 0.34574083E+03</pdfrwt>
<pdfrwt beam="2">  1       21 0.17597181E+00 0.34574083E+03</pdfrwt>
<totfact> 0.39712548E+02</totfact>
</mgrwt>
</event>
<event>
 6      1 +2.5168323e+02 2.40647200e+02 7.54677100e-03 1.16820100e-01
       21 -1    0    0  505  502 +0.0000000000e+00 +0.0000000000e+00 +5.4372232836e+02 5.4372232836e+02 0.0000000000e+00 0.0000e+00 1.0000e+00
       21 -1    0    0  501  503 -0.0000000000e+00 -0.0000000000e+00 -4.1151026181e+02 4.1151026181e+02 0.0000000000e+00 0.0000e+00 1.0000e+00
        6  1    1    2  501    0 +2.1021803824e+02 -1.6775139454e+01 +1.2670724740e+01 2.7306148790e+02 1.7300000000e+02 0.0000e+00 1.0000e+00
       -6  1    1    2    0  502 -1.3767377720e+02 -8.2691260690e+00 +2.8410776619e+02 3.6009536263e+02 1.7300000000e+02 0.0000e+00 1.0000e+00
       21  1    1    2  504  503 -4.7445209396e+01 +2.0198499836e+01 -2.3841518237e+02 2.4392791246e+02 0.0000000000e+00 0.0000e+00 1.0000e+00
       21  1    1    2  505  504 -2.5099051644e+01 +4.8457656869e+00 +7.3848757992e+01 7.8147827196e+01 0.0000000000e+00 0.0000e+00 1.0000e+00
<mgrwt>
<rscale>  4 0.24064722E+03</rscale>
<asrwt>0</asrwt>
<pdfrwt beam="1">  1       21 0.83649588E-01 0.24064722E+03</pdfrwt>
<pdfrwt beam="2">  1       21 0.63309272E-01 0.24064722E+03</pdfrwt>
<totfact> 0.27616746E+03</totfact>
</mgrwt>
</event>
<event>
 6      1 +2.5168323e+02 1.93988700e+02 7.54677100e-03 1.15942100e-01
       21 -1    0    0  504  502 +0.0000000000e+00 +0.0000000000e+00 +2.9270290299e+02 2.9270290299e+02 0.0000000000e+00 0.0000e+00 -1.0000e+00
       21 -1    0    0  501  503 -0.0000000000e+00 -0.0000000000e+00 -4.8835677902e+02 4.8835677902e+02 0.0000000000e+00 0.0000e+00 -1.0000e+00
        6  1    1    2  501    0 -8.9784984153e+00 -5.1333096570e+00 -2.5795928947e+02 3.1077155489e+02 1.7300000000e+02 0.0000e+00 -1.0000e+00
       -6  1    1    2    0  502 +1.4415115885e+02 +1.9606887489e+01 +1.2794717955e+02 2.5973730458e+02 1.7300000000e+02 0.0000e+00 -1.0000e+00
       21  1    1    2  504  505 -8.6820997648e+01 +3.8524328155e+01 -9.3789799654e+01 1.3348608921e+02 0.0000000000e+00 0.0000e+00 -1.0000e+00
       21  1    1    2  505  503 -4.8351662788e+01 -5.2997905987e+01 +2.8148033549e+01 7.7064733348e+01 0.0000000000e+00 0.0000e+00 -1.0000e+00
<mgrwt>
<rscale>  4 0.19398872E+03</rscale>
<asrwt>0</asrwt>
<pdfrwt beam="1">  1       21 0.45031216E-01 0.19398872E+03</pdfrwt>
<pdfrwt beam="2">  1       21 0.75131812E-01 0.19398872E+03</pdfrwt>
<totfact> 0.74870200E+03</totfact>
</mgrwt>
</event>
<event>
 6      1 +2.5168323e+02 2.67154700e+02 7.54677100e-03 1.03924000e-01
       21 -1    0    0  501  502 +0.0000000000e+00 +0.0000000000e+00 +4.9322106243e+02 4.9322106243e+02 0.0000000000e+00 0.0000e+00 1.0000e+00
       21 -1    0    0  502  503 -0.0000000000e+00 -0.0000000000e+00 -8.3005287627e+02 8.3005287627e+02 0.0000000000e+00 0.0000e+00 1.0000e+00
        6  1    1    2  501    0 +7.7936517179e+01 -2.1542880482e+02 +3.5976918739e+02 4.6026789901e+02 1.7300000000e+02 0.0000e+00 1.0000e+00
       -6  1    1    2    0  505 -1.4614193269e+02 +4.8656077195e+01 -1.3098983563e+02 2.6610564702e+02 1.7300000000e+02 0.0000e+00 -1.0000e+00
       21  1    1    2  504  503 -9.7160796263e+00 +2.7189192099e+01 -1.2182447723e+02 1.2519927166e+02 0.0000000000e+00 0.0000e+00 -1.0000e+00
       21  1    1    2  505  504 +7.7921495137e+01 +1.3958353553e+02 -4.4378668837e+02 4.7170112102e+02 0.0000000000e+00 0.0000e+00 1.0000e+00
<mgrwt>
<rscale>  4 0.26715469E+03</rscale>
<asrwt>0</asrwt>
<pdfrwt beam="1">  1       21 0.75880164E-01 0.26715469E+03</pdfrwt>
<pdfrwt beam="2">  1       21 0.12770044E+00 0.26715469E+03</pdfrwt>
<totfact> 0.65360407E+02</totfact>
</mgrwt>
</event>
<event>
 6      1 +2.5168323e+02 1.79920900e+02 7.54677100e-03 1.15942100e-01
       21 -1    0    0  504  502 +0.0000000000e+00 +0.0000000000e+00 +1.2831199514e+03 1.2831199514e+03 0.0000000000e+00 0.0000e+00 -1.0000e+00
       21 -1    0    0  501  503 -0.0000000000e+00 -0.0000000000e+00 -2.1952943906e+02 2.1952943906e+02 0.0000000000e+00 0.0000e+00 -1.0000e+00
        6  1    1    2  501    0 +1.8719201786e+01 +1.7466990711e+01 +5.0430167906e+02 5.3376463706e+02 1.7300000000e+02 0.0000e+00 -1.0000e+00
       -6  1    1    2    0  502 +1.1189671169e+02 +6.9499620940e+01 +7.0912333918e+02 7.4171152180e+02 1.7300000000e+02 0.0000e+00 1.0000e+00
       21  1    1    2  504  505 -1.2203969805e+01 -2.5759137338e+01 -6.0014032531e+01 6.6439100957e+01 0.0000000000e+00 0.0000e+00 -1.0000e+00
       21  1    1    2  505  503 -1.1841194367e+02 -6.1207474313e+01 -8.9820473367e+01 1.6073413064e+02 0.0000000000e+00 0.0000e+00 -1.0000e+00
<mgrwt>
<rscale>  4 0.17992092E+03</rscale>
<asrwt>0</asrwt>
<pdfrwt beam="1">  1       21 0.19740307E+00 0.17992092E+03</pdfrwt>
<pdfrwt beam="2">  1       21 0.33773761E-01 0.17992092E+03</pdfrwt>
<totfact> 0.11956430E+03</totfact>
</mgrwt>
</event>
<event>
 6      1 +2.5168323e+02 2.51595700e+02 7.54677100e-03 1.17132900e-01
       21 -1    0    0  505  502 +0.0000000000e+00 +0.0000000000e+00 +1.8155751169e+02 1.8155751169e+02 0.0000000000e+00 0.0000e+00 1.0000e+00
       21 -1    0    0  504  503 -0.0000000000e+00 -0.0000000000e+00 -7.1857753137e+02 7.1857753137e+02 0.0000000000e+00 0.0000e+00 1.0000e+00
        6  1    1    2  501    0 -2.8417911856e+01 +5.0967711334e+00 -2.9100095439e+02 3.3977067302e+02 1.7300000000e+02 0.0000e+00 1.0000e+00
       -6  1    1    2    0  502 +1.2499174137e+02 +1.0152475626e+02 -1.1054191341e+02 2.6091900307e+02 1.7300000000e+02 0.0000e+00 1.0000e+00
       21  1    1    2  504  501 -1.4416485847e+02 -1.3402016777e+02 -1.4398175022e+02 2.4387631329e+02 0.0000000000e+00 0.0000e+00 1.0000e+00
       21  1    1    2  505  503 +4.7591028962e+01 +2.7398640384e+01 +8.5045983475e+00 5.5569053668e+01 0.0000000000e+00 0.0000e+00 1.0000e+00
<mgrwt>
<rscale>  4 0.22959944E+03</rscale>
<asrwt>0</asrwt>
<pdfrwt beam="1">  1       21 0.27931925E-01 0.25159573E+03</pdfrwt>
<pdfrwt beam="2">  1       21 0.11055039E+00 0.25159573E+03</pdfrwt>
<totfact> 0.75916931E+03</totfact>
</mgrwt>
</event>
<event>
 6      1 +2.5168323e+02 2.46033200e+02 7.54677100e-03 1.17132900e-01
       21 -1    0    0  503  502 +0.0000000000e+00 +0.0000000000e+00 +7.0015515749e+02 7.0015515749e+02 0.0000000000e+00 0.0000e+00 1.0000e+00
       21 -1    0    0  504  503 -0.0000000000e+00 -0.0000000000e+00 -2.5619675239e+02 2.5619675239e+02 0.0000000000e+00 0.0000e+00 1.0000e+00
        6  1    1    2  501    0 -4.7404663113e+01 -1.4431200308e+02 +2.5752553452e+02 3.4542952573e+02 1.7300000000e+02 0.0000e+00 1.0000e+00
       -6  1    1    2    0  505 +1.4776215894e+02 +2.1047053070e+02 +8.2119232577e+01 3.2063073506e+02 1.7300000000e+02 0.0000e+00 1.0000e+00
       21  1    1    2  504  501 -8.5155023443e+01 -8.3469214318e+01 -5.3579999014e+01 1.3072606492e+02 0.0000000000e+00 0.0000e+00 1.0000e+00
       21  1    1    2  505  502 -1.5202472384e+01 +1.7310686699e+01 +1.5789363701e+02 1.5956558417e+02 0.0000000000e+00 0.0000e+00 1.0000e+00
<mgrwt>
<rscale>  4 0.24603324E+03</rscale>
<asrwt>0</asrwt>
<pdfrwt beam="1">  1       21 0.10771618E+00 0.24603324E+03</pdfrwt>
<pdfrwt beam="2">  1       21 0.39414885E-01 0.24603324E+03</pdfrwt>
<totfact> 0.40968618E+03</totfact>
</mgrwt>
</event>
<event>
 6      1 +2.5168323e+02 1.82748500e+02 7.54677100e-03 1.12989000e-01
       21 -1    0    0  501  502 +0.0000000000e+00 +0.0000000000e+00 +1.4570181351e+03 1.4570181351e+03 0.0000000000e+00 0.0000e+00 -1.0000e+00
       21 -1    0    0  502  503 -0.0000000000e+00 -0.0000000000e+00 -7.8953651235e+01 7.8953651235e+01 0.0000000000e+00 0.0000e+00 -1.0000e+00
        6  1    1    2  501    0 +3.5467993562e+01 +8.7313437833e+00 +8.2730708879e+02 8.4599068204e+02 1.7300000000e+02 0.0000e+00 -1.0000e+00
       -6  1    1    2    0  504 -8.8779956237e+01 -7.7998719671e+01 +4.6829269806e+02 5.1302313004e+02 1.7300000000e+02 0.0000e+00 -1.0000e+00
       21  1    1    2  504  505 +8.5456852924e+01 +6.0884513970e+00 +4.6056090577e+01 9.7268219020e+01 0.0000000000e+00 0.0000e+00 -1.0000e+00
       21  1    1    2  505  503 -3.2144890249e+01 +6.3178924491e+01 +3.6408606458e+01 7.9689755259e+01 0.0000000000e+00 0.0000e+00 -1.0000e+00
<mgrwt>
<rscale>  4 0.18274850E+03</rscale>
<asrwt>0</asrwt>
<pdfrwt beam="1">  1       21 0.22415662E+00 0.18274850E+03</pdfrwt>
<pdfrwt beam="2">  1       21 0.12146717E-01 0.18274850E+03</pdfrwt>
<totfact> 0.55015088E+03</totfact>
</mgrwt>
</event>
<event>
 6      1 +2.5168323e+02 2.67564300e+02 7.54677100e-03 1.11896800e-01
       21 -1    0    0  501  502 +0.0000000000e+00 +0.0000000000e+00 +3.2854032643e+02 3.2854032643e+02 0.0000000000e+00 0.0000e+00 -1.0000e+00
       21 -1    0    0  504  503 -0.0000000000e+00 -0.0000000000e+00 -5.0289104858e+02 5.0289104858e+02 0.0000000000e+00 0.0000e+00 1.0000e+00
        6  1    1    2  501    0 +8.9901386202e+01 +1.4729154043e+02 -1.0982803856e+01 2.4459492861e+02 1.7300000000e+02 0.0000e+00 -1.0000e+00
       -6  1    1    2    0  503 -9.7833089670e+01 -1.9567313647e+02 -3.1006173931e+02 4.1704504788e+02 1.7300000000e+02 0.0000e+00 1.0000e+00
       21  1    1    2  504  505 -1.2892374600e+01 +6.0093904139e+01 +1.0997104234e+02 1.2598063657e+02 0.0000000000e+00 0.0000e+00 -1.0000e+00
       21  1    1    2  505  502 +2.0824078067e+01 -1.1712308097e+01 +3.6722778676e+01 4.3810761943e+01 0.0000000000e+00 0.0000e+00 -1.0000e+00
<mgrwt>
<rscale>  4 0.26756435E+03</rscale>
<asrwt>0</asrwt>
<pdfrwt beam="1">  1       21 0.50544666E-01 0.26756435E+03</pdfrwt>
<pdfrwt beam="2">  1       21 0.77367854E-01 0.26756435E+03</pdfrwt>
<totfact> 0.52532905E+03</totfact>
</mgrwt>
</event>
<event>
 6      1 +2.5168323e+02 2.28783900e+02 7.54677100e-03 1.12989000e-01
       21 -1    0    0  501  502 +0.0000000000e+00 +0.0000000000e+00 +3.3488407684e+02 3.3488407684e+02 0.0000000000e+00 0.0000e+00 -1.0000e+00
       21 -1    0    0  502  503 -0.0000000000e+00 -0.0000000000e+00 -5.4732302327e+02 5.4732302327e+02 0.0000000000e+00 0.0000e+00 1.0000e+00
        6  1    1    2  501    0 +1.5739800120e+02 -4.0603161843e+01 +1.7691200720e+02 2.9605676115e+02 1.7300000000e+02 0.0000e+00 -1.0000e+00
       -6  1    1    2    0  505 -1.1765533288e+02 +3.9634355315e+01 -2.4940797269e+01 2.1439380319e+02 1.7300000000e+02 0.0000e+00 -1.0000e+00
       21  1    1    2  504  503 -1.5019623532e+01 +2.4121545820e+01 -2.6930123353e+02 2.7079621940e+02 0.0000000000e+00 0.0000e+00 1.0000e+00
       21  1    1    2  505  504 -2.4723044781e+01 -2.3152739293e+01 -9.5108922831e+01 1.0096031637e+02 0.0000000000e+00 0.0000e+00 1.0000e+00
<mgrwt>
<rscale>  4 0.22878387E+03</rscale>
<asrwt>0</asrwt>
<pdfrwt beam="1">  1       21 0.51520628E-01 0.22878387E+03</pdfrwt>
<pdfrwt beam="2">  1       21 0.84203541E-01 0.22878387E+03</pdfrwt>
<totfact> 0.42632054E+03</totfact>
</mgrwt>
</event>
<event>
 6      1 +2.5168323e+02 1.85548400e+02 7.54677100e-03 1.17132900e-01
       21 -1    0    0  503  502 +0.0000000000e+00 +0.0000000000e+00 +7.3391310608e+02 7.3391310608e+02 0.0000000000e+00 0.0000e+00 -1.0000e+00
       21 -1    0    0  504  503 -0.0000000000e+00 -0.0000000000e+00 -1.9475284461e+02 1.9475284461e+02 0.0000000000e+00 0.0000e+00 -1.0000e+00
        6  1    1    2  501    0 +2.5800791411e+01 -7.0210000574e+01 +7.6876395241e+01 2.0355369111e+02 1.7300000000e+02 0.0000e+00 -1.0000e+00
       -6  1    1    2    0  505 -7.8219412186e+01 +3.7310462901e+01 +2.2146825650e+02 2.9408763272e+02 1.7300000000e+02 0.0000e+00 -1.0000e+00
       21  1    1    2  504  501 +7.1691638796e+00 +3.3895954453e+01 -9.0358057076e+01 9.6772470866e+01 0.0000000000e+00 0.0000e+00 1.0000e+00
       21  1    1    2  505  502 +4.5249456895e+01 -9.9641678033e-01 +3.3117366681e+02 3.3425215599e+02 0.0000000000e+00 0.0000e+00 -1.0000e+00
<mgrwt>
<rscale>  4 0.18554845E+03</rscale>
<asrwt>0</asrwt>
<pdfrwt beam="1">  1       21 0.11290971E+00 0.18554845E+03</pdfrwt>
<pdfrwt beam="2">  1       21 0.29961977E-01 0.18554845E+03</pdfrwt>
<totfact> 0.65847628E+03</totfact>
</mgrwt>
</event>
<event>
 6      1 +2.5168323e+02 2.19189300e+02 7.54677100e-03 1.15942100e-01
       21 -1    0    0  504  502 +0.0000000000e+00 +0.0000000000e+00 +1.2064717648e+03 1.2064717648e+03 0.0000000000e+00 0.0000e+00 1.0000e+00
       21 -1    0    0  501  503 -0.0000000000e+00 -0.0000000000e+00 -1.8692973568e+02 1.8692973568e+02 0.0000000000e+00 0.0000e+00 1.0000e+00
        6  1    1    2  501    0 -1.1062312811e+02 +1.7891942154e+01 +6.8322303276e+02 7.1363878157e+02 1.7300000000e+02 0.0000e+00 1.0000e+00
       -6  1    1    2    0  502 +1.6226225153e+02 -1.6422257422e+02 +3.9990237957e+02 4.9310141486e+02 1.7300000000e+02 0.0000e+00 -1.0000e+00
       21  1    1    2  504  505 -4.8459251099e+00 +3.5006132898e+01 -5.5288035168e+01 6.5617674169e+01 0.0000000000e+00 0.0000e+00 1.0000e+00
       21  1    1    2  505  503 -4.6793198315e+01 +1.1132449917e+02 -8.2953480785e+00 1.2104362983e+02 0.0000000000e+00 0.0000e+00 1.0000e+00
<mgrwt>
<rscale>  4 0.21918929E+03</rscale>
<asrwt>0</asrwt>
<pdfrwt beam="1">  1       21 0.18561104E+00 0.21918929E+03</pdfrwt>
<pdfrwt beam="2">  1       21 0.28758422E-01 0.21918929E+03</pdfrwt>
<totfact> 0.18801124E+03</totfact>
</mgrwt>
</event>
<event>
 6      1 +2.5168323e+02 5.06513300e+02 7.54677100e-03 1.15942100e-01
       21 -1    0    0  505  502 +0.0000000000e+00 +0.0000000000e+00 +1.7780653755e+03 1.7780653755e+03 0.0000000000e+00 0.0000e+00 -1.0000e+00
       21 -1    0    0  501  503 -0.0000000000e+00 -0.0000000000e+00 -4.8264928414e+02 4.8264928414e+02 0.0000000000e+00 0.0000e+00 1.0000e+00
        6  1    1    2  501    0 -2.2544574476e+02 +3.7204994271e+02 +4.7007281875e+02 6.6343379371e+02 1.7300000000e+02 0.0000e+00 1.0000e+00
       -6  1    1    2    0  504 -3.6530823096e+02 -3.8669897644e+02 +5.9643346822e+02 8.1770904605e+02 1.7300000000e+02 0.0000e+00 -1.0000e+00
       21  1    1    2  504  502 +5.2279273646e+02 -1.6188143956e+02 +2.2107984438e+02 5.9024922140e+02 0.0000000000e+00 0.0000e+00 1.0000e+00
       21  1    1    2  505  503 +6.7961239256e+01 +1.7653047329e+02 +7.8299600563e+00 1.8932259853e+02 0.0000000000e+00 0.0000e+00 -1.0000e+00
<mgrwt>
<rscale>  4 0.50391107E+03</rscale>
<asrwt>0</asrwt>
<pdfrwt beam="1">  1       21 0.27354852E+00 0.50651327E+03</pdfrwt>
<pdfrwt beam="2">  1       21 0.74253737E-01 0.50651327E+03</pdfrwt>
<totfact> 0.58738455E+01</totfact>
</mgrwt>
</event>
<event>
 6      1 +2.5168323e+02 1.78431600e+02 7.54677100e-03 1.16584500e-01
       21 -1    0    0  503  502 +0.0000000000e+00 +0.0000000000e+00 +2.0459787732e+02 2.0459787732e+02 0.0000000000e+00 0.0000e+00 -1.0000e+00
       21 -1    0    0  504  503 -0.0000000000e+00 -0.0000000000e+00 -6.7887856312e+02 6.7887856312e+02 0.0000000000e+00 0.0000e+00 -1.0000e+00
        6  1    1    2  501    0 -2.4849899021e+01 -2.6965826449e+01 +6.8245819380e+01 1.8955517703e+02 1.7300000000e+02 0.0000e+00 -1.0000e+00
       -6  1    1    2    0  505 +1.5914307323e+01 -4.8298366194e+01 -5.1536452697e+02 5.4599962730e+02 1.7300000000e+02 0.0000e+00 -1.0000e+00
       21  1    1    2  504  501 +2.5519680852e+01 +9.4923011876e+01 -5.2824603003e+01 1.1158884791e+02 0.0000000000e+00 0.0000e+00 -1.0000e+00
       21  1    1    2  505  502 -1.6584089153e+01 -1.9658819233e+01 +2.5662624802e+01 3.6332788200e+01 0.0000000000e+00 0.0000e+00 1.0000e+00
<mgrwt>
<rscale>  4 0.17843157E+03</rscale>
<asrwt>0</asrwt>
<pdfrwt beam="1">  1       21 0.31476597E-01 0.17843157E+03</pdfrwt>
<pdfrwt beam="2">  1       21 0.10444285E+00 0.17843157E+03</pdfrwt>
<totfact> 0.72569865E+03</totfact>
</mgrwt>
</event>
<event>
 6      1 +2.5168323e+02 2.67092400e+02 7.54677100e-03 1.17132900e-01
       21 -1    0    0  505  502 +0.0000000000e+00 +0.0000000000e+00 +1.1383553869e+03 1.1383553869e+03 0.0000000000e+00 0.0000e+00 -1.0000e+00
       21 -1    0    0  504  503 -0.0000000000e+00 -0.0000000000e+00 -3.2748638661e+02 3.2748638661e+02 0.0000000000e+00 0.0000e+00 -1.0000e+00
        6  1    1    2  501    0 +4.0891647325e+01 +2.2082413189e+02 +2.1372839194e+02 3.5502711103e+02 1.7300000000e+02 0.0000e+00 -1.0000e+00
       -6  1    1    2    0  502 -5.7120716575e+01 -1.6304515030e+02 +7.2114525530e+02 7.6146305001e+02 1.7300000000e+02 0.0000e+00 -1.0000e+00
       21  1    1    2  504  501 +2.0756144630e+01 -1.9764921570e+01 -2.3252085146e+02 2.3428063519e+02 0.0000000000e+00 0.0000e+00 -1.0000e+00
       21  1    1    2  505  503 -4.5270753793e+00 -3.8014060021e+01 +1.0851620451e+02 1.1507097728e+02 0.0000000000e+00 0.0000e+00 -1.0000e+00
<mgrwt>
<rscale>  4 0.26709244E+03</rscale>
<asrwt>0</asrwt>
<pdfrwt beam="1">  1       21 0.17513160E+00 0.26709244E+03</pdfrwt>
<pdfrwt beam="2">  1       21 0.50382522E-01 0.26709244E+03</pdfrwt>
<totfact> 0.68570020E+02</totfact>
</mgrwt>
</event>
<event>
 6      1 +2.5168323e+02 1.73206500e+02 7.54677100e-03 1.15942100e-01
       21 -1    0    0  504  502 +0.0000000000e+00 +0.0000000000e+00 +5.1241109618e+02 5.1241109618e+02 0.0000000000e+00 0.0000e+00 1.0000e+00
       21 -1    0    0  501  503 -0.0000000000e+00 -0.0000000000e+00 -2.8587144609e+02 2.8587144609e+02 0.0000000000e+00 0.0000e+00 1.0000e+00
        6  1    1    2  501    0 -5.2820059570e+01 -3.7711180730e+01 +5.4112159983e+01 1.9253367940e+02 1.7300000000e+02 0.0000e+00 1.0000e+00
       -6  1    1    2    0  502 -2.2092571096e+01 -2.3890595836e+00 +3.5881612791e+02 3.9896341055e+02 1.7300000000e+02 0.0000e+00 1.0000e+00
       21  1    1    2  504  505 +5.5049917902e+01 +2.8010563659e+01 -1.0192596765e+02 1.1918048506e+02 0.0000000000e+00 0.0000e+00 1.0000e+00
       21  1    1    2  505  503 +1.9862712764e+01 +1.2089676655e+01 -8.4462670149e+01 8.7604967261e+01 0.0000000000e+00 0.0000e+00 -1.0000e+00
<mgrwt>
<rscale>  4 0.17320645E+03</rscale>
<asrwt>0</asrwt>
<pdfrwt beam="1">  1       21 0.78832476E-01 0.17320645E+03</pdfrwt>
<pdfrwt beam="2">  1       21 0.43980223E-01 0.17320645E+03</pdfrwt>
<totfact> 0.71661040E+03</totfact>
</mgrwt>
</event>
<event>
 6      1 +2.5168323e+02 1.89410900e+02 7.54677100e-03 1.17132900e-01
       21 -1    0    0  505  502 +0.0000000000e+00 +0.0000000000e+00 +2.2215050633e+02 2.2215050633e+02 0.0000000000e+00 0.0000e+00 1.0000e+00
       21 -1    0    0  504  503 -0.0000000000e+00 -0.0000000000e+00 -8.1092801740e+02 8.1092801740e+02 0.0000000000e+00 0.0000e+00 1.0000e+00
        6  1    1    2  501    0 -1.7529164079e+01 +1.1459464551e+02 -3.0874401488e+02 3.7241250126e+02 1.7300000000e+02 0.0000e+00 -1.0000e+00
       -6  1    1    2    0  502 +2.8010997362e+01 -4.8402506225e+01 -1.1548591136e+02 2.1539130508e+02 1.7300000000e+02 0.0000e+00 -1.0000e+00
       21  1    1    2  504  501 -3.0905495279e+01 -6.4373043357e+01 -2.9994790189e+02 3.0833063778e+02 0.0000000000e+00 0.0000e+00 1.0000e+00
       21  1    1    2  505  503 +2.0423661996e+01 -1.8190959318e+00 +1.3540031705e+02 1.3694407960e+02 0.0000000000e+00 0.0000e+00 1.0000e+00
<mgrwt>
<rscale>  4 0.18941087E+03</rscale>
<asrwt>0</asrwt>
<pdfrwt beam="1">  1       21 0.34177001E-01 0.18941087E+03</pdfrwt>
<pdfrwt beam="2">  1       21 0.12475816E+00 0.18941087E+03</pdfrwt>
<totfact> 0.39652281E+03</totfact>
</mgrwt>
</event>
<event>
 6      1 +2.5168323e+02 2.15009400e+02 7.54677100e-03 1.07240600e-01
       21 -1    0    0  505  502 +0.0000000000e+00 +0.0000000000e+00 +3.3375850222e+02 3.3375850222e+02 0.0000000000e+00 0.0000e+00 -1.0000e+00
       21 -1    0    0  504  503 -0.0000000000e+00 -0.0000000000e+00 -5.1999590571e+02 5.1999590571e+02 0.0000000000e+00 0.0000e+00 -1.0000e+00
        6  1    1    2  501    0 -2.1593937847e+02 +1.6995140998e+01 +5.4401366138e+01 2.8250160819e+02 1.7300000000e+02 0.0000e+00 -1.0000e+00
       -6  1    1    2    0  502 +5.8530034282e+01 -4.4385354211e+01 +3.6715277484e+01 1.9150153050e+02 1.7300000000e+02 0.0000e+00 -1.0000e+00
       21  1    1    2  504  501 -1.7538903646e+01 -3.7767144060e+01 +4.2802652395e+00 4.1860374844e+01 0.0000000000e+00 0.0000e+00 1.0000e+00
       21  1    1    2  505  503 +1.7494824783e+02 +6.5157357274e+01 -2.8163431235e+02 3.3789089440e+02 0.0000000000e+00 0.0000e+00 -1.0000e+00
<mgrwt>
<rscale>  4 0.21500944E+03</rscale>
<asrwt>0</asrwt>
<pdfrwt beam="1">  1       21 0.51347462E-01 0.21500944E+03</pdfrwt>
<pdfrwt beam="2">  1       21 0.79999370E-01 0.21500944E+03</pdfrwt>
<totfact> 0.48734182E+03</totfact>
</mgrwt>
</event>
<event>
 6      1 +2.5168323e+02 2.43245200e+02 7.54677100e-03 1.11910500e-01
       21 -1    0    0  501  502 +0.0000000000e+00 +0.0000000000e+00 +7.6762517142e+02 7.6762517142e+02 0.0000000000e+00 0.0000e+00 1.0000e+00
       21 -1    0    0  505  503 -0.0000000000e+00 -0.0000000000e+00 -3.1734470763e+02 3.1734470763e+02 0.0000000000e+00 0.0000e+00 -1.0000e+00
        6  1    1    2  501    0 +3.4640069254e+00 +1.4809941247e+02 +8.8891615068e+01 2.4449162470e+02 1.7300000000e+02 0.0000e+00 1.0000e+00
       -6  1    1    2    0  504 -1.3208276824e+02 -1.3836541603e+02 +5.3307941074e+02 5.9219380626e+02 1.7300000000e+02 0.0000e+00 -1.0000e+00
       21  1    1    2  504  503 -7.1574481604e+00 +2.6682435488e+01 -1.6710027035e+00 2.7676229471e+01 0.0000000000e+00 0.0000e+00 1.0000e+00
       21  1    1    2  505  502 +1.3577620948e+02 -3.6416431929e+01 -1.7001955931e+02 2.2060821862e+02 0.0000000000e+00 0.0000e+00 -1.0000e+00
<mgrwt>
<rscale>  4 0.24324524E+03</rscale>
<asrwt>0</asrwt>
<pdfrwt beam="1">  1       21 0.11809618E+00 0.24324524E+03</pdfrwt>
<pdfrwt beam="2">  1       21 0.48822263E-01 0.24324524E+03</pdfrwt>
<totfact> 0.21090802E+03</totfact>
</mgrwt>
</event>
<event>
 6      1 +2.5168323e+02 2.75808000e+02 7.54677100e-03 1.07064900e-01
       21 -1    0    0  501  502 +0.0000000000e+00 +0.0000000000e+00 +1.1344397492e+02 1.1344397492e+02 0.0000000000e+00 0.0000e+00 -1.0000e+00
       21 -1    0    0  504  503 -0.0000000000e+00 -0.0000000000e+00 -1.3006229256e+03 1.3006229256e+03 0.0000000000e+00 0.0000e+00 -1.0000e+00
        6  1    1    2  501    0 -1.5966551289e+02 +4.1337788291e+01 -1.0581670040e+02 2.6139637111e+02 1.7300000000e+02 0.0000e+00 -1.0000e+00
       -6  1    1    2    0  503 +2.1790163433e+02 -6.5824939593e+01 -1.0041703675e+03 1.0440791023e+03 1.7300000000e+02 0.0000e+00 -1.0000e+00
       21  1    1    2  504  505 -3.7837072528e+01 +3.2576266274e+01 -6.8996338940e+01 8.5166612995e+01 0.0000000000e+00 0.0000e+00 -1.0000e+00
       21  1    1    2  505  502 -2.0399048910e+01 -8.0891149728e+00 -8.1955438687e+00 2.3424814125e+01 0.0000000000e+00 0.0000e+00 1.0000e+00
<mgrwt>
<rscale>  4 0.27580802E+03</rscale>
<asrwt>0</asrwt>
<pdfrwt beam="1">  1       21 0.17452920E-01 0.27580802E+03</pdfrwt>
<pdfrwt beam="2">  1       21 0.20009582E+00 0.27580802E+03</pdfrwt>
<totfact> 0.37241626E+03</totfact>
</mgrwt>
</event>
<event>
 6      1 +2.5168323e+02 2.47097500e+02 7.54677100e-03 1.07240600e-01
       21 -1    0    0  505  502 +0.0000000000e+00 +0.0000000000e+00 +1.4042837580e+02 1.4042837580e+02 0.0000000000e+00 0.0000e+00 -1.0000e+00
       21 -1    0    0  504  503 -0.0000000000e+00 -0.0000000000e+00 -1.0014560536e+03 1.0014560536e+03 0.0000000000e+00 0.0000e+00 -1.0000e+00
        6  1    1    2  501    0 -6.7845542367e+01 -1.6487494556e+02 -4.5975741386e+02 5.2258266799e+02 1.7300000000e+02 0.0000e+00 -1.0000e+00
       -6  1    1    2    0  502 +4.2398835799e+01 +1.7115172264e+02 -3.8894809833e+01 2.5006475096e+02 1.7300000000e+02 0.0000e+00 -1.0000e+00
       21  1    1    2  504  501 +9.0529666155e+00 -2.9430050100e+01 -8.4827698305e+01 9.0243129673e+01 0.0000000000e+00 0.0000e+00 -1.0000e+00
       21  1    1    2  505  503 +1.6393739952e+01 +2.3153273020e+01 -2.7754775585e+02 2.7899388082e+02 0.0000000000e+00 0.0000e+00 -1.0000e+00
<mgrwt>
<rscale>  4 0.24709748E+03</rscale>
<asrwt>0</asrwt>
<pdfrwt beam="1">  1       21 0.21604366E-01 0.24709748E+03</pdfrwt>
<pdfrwt beam="2">  1       21 0.15407016E+00 0.24709748E+03</pdfrwt>
<totfact> 0.53371580E+03</totfact>
</mgrwt>
</event>
<event>
 6      1 +2.5168323e+02 1.88301800e+02 7.54677100e-03 1.11910500e-01
       21 -1    0    0  501  502 +0.0000000000e+00 +0.0000000000e+00 +4.2480292814e+02 4.2480292814e+02 0.0000000000e+00 0.0000e+00 -1.0000e+00
       21 -1    0    0  505  503 -0.0000000000e+00 -0.0000000000e+00 -1.3159915935e+03 1.3159915935e+03 0.0000000000e+00 0.0000e+00 -1.0000e+00
        6  1    1    2  501    0 +3.9455939001e+01 +6.1032950781e+01 +2.4301317295e+02 3.0702800268e+02 1.7300000000e+02 0.0000e+00 -1.0000e+00
       -6  1    1    2    0  504 -7.7364782599e+01 -3.7013806178e+01 +8.3708559712e+01 2.1045535014e+02 1.7300000000e+02 0.0000e+00 1.0000e+00
       21  1    1    2  504  503 +3.0023363981e+01 +1.5050657938e+01 -1.1819854003e+02 1.2287725401e+02 0.0000000000e+00 0.0000e+00 1.0000e+00
       21  1    1    2  505  502 +7.8854796167e+00 -3.9069802542e+01 -1.0997118580e+03 1.1004339148e+03 0.0000000000e+00 0.0000e+00 -1.0000e+00
<mgrwt>
<rscale>  4 0.18830181E+03</rscale>
<asrwt>0</asrwt>
<pdfrwt beam="1">  1       21 0.65354297E-01 0.18830181E+03</pdfrwt>
<pdfrwt beam="2">  1       21 0.20246025E+00 0.18830181E+03</pdfrwt>
<totfact> 0.28051521E+02</totfact>
</mgrwt>
</event>
<event>
 6      1 +2.5168323e+02 2.35135600e+02 7.54677100e-03 1.16820100e-01
       21 -1    0    0  501  502 +0.0000000000e+00 +0.0000000000e+00 +1.6821054239e+02 1.6821054239e+02 0.0000000000e+00 0.0000e+00 1.0000e+00
       21 -1    0    0  504  503 -0.0000000000e+00 -0.0000000000e+00 -1.1354187316e+03 1.1354187316e+03 0.0000000000e+00 0.0000e+00 1.0000e+00
        6  1    1    2  501    0 +5.6514954767e+01 -1.2323954243e+02 -8.2364656232e+01 2.3472294632e+02 1.7300000000e+02 0.0000e+00 1.0000e+00
       -6  1    1    2    0  503 +2.2913765567e+01 +1.6559856374e+02 -8.9893278071e+02 9.3056814323e+02 1.7300000000e+02 0.0000e+00 1.0000e+00
       21  1    1    2  504  505 -2.0245259916e+01 +2.5010840007e+00 -4.1052254359e+01 4.5841177539e+01 0.0000000000e+00 0.0000e+00 -1.0000e+00
       21  1    1    2  505  502 -5.9183460417e+01 -4.4860105312e+01 +5.5141502083e+01 9.2497006911e+01 0.0000000000e+00 0.0000e+00 1.0000e+00
<mgrwt>
<rscale>  4 0.23513564E+03</rscale>
<asrwt>0</asrwt>
<pdfrwt beam="1">  1       21 0.25878545E-01 0.23513564E+03</pdfrwt>
<pdfrwt beam="2">  1       21 0.17467980E+00 0.23513564E+03</pdfrwt>
<totfact> 0.27026052E+03</totfact>
</mgrwt>
</event>
<event>
 6      1 +2.5168323e+02 3.92131000e+02 7.54677100e-03 1.16820100e-01
       21 -1    0    0  501  502 +0.0000000000e+00 +0.0000000000e+00 +6.2707941505e+02 6.2707941505e+02 0.0000000000e+00 0.0000e+00 1.0000e+00
       21 -1    0    0  504  503 -0.0000000000e+00 -0.0000000000e+00 -1.2489648782e+03 1.2489648782e+03 0.0000000000e+00 0.0000e+00 -1.0000e+00
        6  1    1    2  501    0 +1.5530584964e+02 -2.8604027151e+01 -1.8260833024e+02 2.9700656487e+02 1.7300000000e+02 0.0000e+00 -1.0000e+00
       -6  1    1    2    0  503 -5.3836110386e+02 +3.1935934756e+02 -4.7689692071e+02 8.0571877476e+02 1.7300000000e+02 0.0000e+00 -1.0000e+00
       21  1    1    2  504  505 +1.3257485525e+02 -8.6092369333e+01 -2.7901125989e+02 3.2067939043e+02 0.0000000000e+00 0.0000e+00 -1.0000e+00
       21  1    1    2  505  502 +2.5048039897e+02 -2.0466295107e+02 +3.1663104769e+02 4.5263956320e+02 0.0000000000e+00 0.0000e+00 1.0000e+00
<mgrwt>
<rscale>  4 0.35418135E+03</rscale>
<asrwt>0</asrwt>
<pdfrwt beam="1">  1       21 0.96473757E-01 0.39213100E+03</pdfrwt>
<pdfrwt beam="2">  1       21 0.19214844E+00 0.39213100E+03</pdfrwt>
<totfact> 0.11163176E+02</totfact>
</mgrwt>
</event>
<event>
 6      1 +2.5168323e+02 2.96153500e+02 7.54677100e-03 1.16820100e-01
       21 -1    0    0  505  502 +0.0000000000e+00 +0.0000000000e+00 +1.5963682265e+03 1.5963682265e+03 0.0000000000e+00 0.0000e+00 -1.0000e+00
       21 -1    0    0  504  503 -0.0000000000e+00 -0.0000000000e+00 -4.1943422322e+02 4.1943422322e+02 0.0000000000e+00 0.0000e+00 -1.0000e+00
        6  1    1    2  501    0 -1.3787255059e+02 +2.2624717959e+02 +5.4283091440e+01 3.2104871981e+02 1.7300000000e+02 0.0000e+00 -1.0000e+00
       -6  1    1    2    0  503 +9.9301910761e+01 -1.9579848276e+02 -6.1300470197e+01 2.8615496322e+02 1.7300000000e+02 0.0000e+00 -1.0000e+00
       21  1    1    2  504  502 +2.9117715476e+01 -3.5521287748e+00 -1.1024889368e+02 1.1408451924e+02 0.0000000000e+00 0.0000e+00 1.0000e+00
       21  1    1    2  505  501 +9.4529243523e+00 -2.6896568054e+01 +1.2942002757e+03 1.2945142475e+03 0.0000000000e+00 0.0000e+00 -1.0000e+00
<mgrwt>
<rscale>  4 0.29615355E+03</rscale>
<asrwt>0</asrwt>
<pdfrwt beam="1">  1       21 0.24559511E+00 0.29615355E+03</pdfrwt>
<pdfrwt beam="2">  1       21 0.64528343E-01 0.29615355E+03</pdfrwt>
<totfact> 0.13836615E+02</totfact>
</mgrwt>
</event>
<event>
 6      1 +2.5168323e+02 2.99316900e+02 7.54677100e-03 1.17132900e-01
       21 -1    0    0  503  502 +0.0000000000e+00 +0.0000000000e+00 +7.3474674167e+02 7.3474674167e+02 0.0000000000e+00 0.0000e+00 -1.0000e+00
       21 -1    0    0  504  503 -0.0000000000e+00 -0.0000000000e+00 -3.4471919492e+02 3.4471919492e+02 0.0000000000e+00 0.0000e+00 1.0000e+00
        6  1    1    2  501    0 -1.4208693452e+02 +2.0650743902e+02 +2.6309454584e+02 4.0246957572e+02 1.7300000000e+02 0.0000e+00 -1.0000e+00
       -6  1    1    2    0  505 +1.3884711646e+02 -1.9301835220e+02 +2.3440581456e+02 3.7604480044e+02 1.7300000000e+02 0.0000e+00 -1.0000e+00
       21  1    1    2  504  501 -6.5307169443e+01 +3.4793715310e+01 -1.7711815893e+02 1.9195434673e+02 0.0000000000e+00 0.0000e+00 1.0000e+00
       21  1    1    2  505  502 +6.8546987503e+01 -4.8282802125e+01 +6.9645345275e+01 1.0899721370e+02 0.0000000000e+00 0.0000e+00 -1.0000e+00
<mgrwt>
<rscale>  4 0.29931685E+03</rscale>
<asrwt>0</asrwt>
<pdfrwt beam="1">  1       21 0.11303796E+00 0.29931685E+03</pdfrwt>
<pdfrwt beam="2">  1       21 0.53033722E-01 0.29931685E+03</pdfrwt>
<totfact> 0.19013058E+03</totfact>
</mgrwt>
</event>
<event>
 6      1 +2.5168323e+02 1.88069900e+02 7.54677100e-03 1.11910500e-01
       21 -1    0    0  501  502 +0.0000000000e+00 +0.0000000000e+00 +1.2857903484e+02 1.2857903484e+02 0.0000000000e+00 0.0000e+00 -1.0000e+00
       21 -1    0    0  505  503 -0.0000000000e+00 -0.0000000000e+00 -5.3405145327e+02 5.3405145327e+02 0.0000000000e+00 0.0000e+00 -1.0000e+00
        6  1    1    2  501    0 -5.1526391606e+00 -3.7536184576e+01 -1.0041653669e+02 2.0358780829e+02 1.7300000000e+02 0.0000e+00 -1.0000e+00
       -6  1    1    2    0  504 +2.2313406884e+01 +1.1256099396e+02 -1.1128462820e+02 2.3554433545e+02 1.7300000000e+02 0.0000e+00 -1.0000e+00
       21  1    1    2  504  503 +2.5219212946e+01 -2.1291704506e-01 -3.8903951935e+01 4.6363471736e+01 0.0000000000e+00 0.0000e+00 1.0000e+00
       21  1    1    2  505  502 -4.2379980669e+01 -7.4811892340e+01 -1.5486730160e+02 1.7713487263e+02 0.0000000000e+00 0.0000e+00 -1.0000e+00
<mgrwt>
<rscale>  4 0.18806995E+03</rscale>
<asrwt>0</asrwt>
<pdfrwt beam="1">  1       21 0.19781390E-01 0.18806995E+03</pdfrwt>
<pdfrwt beam="2">  1       21 0.82161761E-01 0.18806995E+03</pdfrwt>
<totfact> 0.30582216E+04</totfact>
</mgrwt>
</event>
<event>
 6      1 +2.5168323e+02 1.90545700e+02 7.54677100e-03 1.12068800e-01
       21 -1    0    0  504  502 +0.0000000000e+00 +0.0000000000e+00 +2.1831326549e+02 2.1831326549e+02 0.0000000000e+00 0.0000e+00 -1.0000e+00
       21 -1    0    0  502  503 -0.0000000000e+00 -0.0000000000e+00 -1.2045525198e+03 1.2045525198e+03 0.0000000000e+00 0.0000e+00 -1.0000e+00
        6  1    1    2  501    0 -1.1743001168e+02 +5.0774139863e+00 -9.1335954917e+01 2.2822542460e+02 1.7300000000e+02 0.0000e+00 1.0000e+00
       -6  1    1    2    0  505 +5.7681241542e+01 +4.3565726745e+01 +8.8872455945e+01 2.0749075063e+02 1.7300000000e+02 0.0000e+00 -1.0000e+00
       21  1    1    2  504  501 +4.7369139554e+01 -2.3544028545e+01 -7.0067865165e+02 7.0267256211e+02 0.0000000000e+00 0.0000e+00 -1.0000e+00
       21  1    1    2  505  503 +1.2379630580e+01 -2.5099112187e+01 -2.8309710372e+02 2.8447704797e+02 0.0000000000e+00 0.0000e+00 -1.0000e+00
<mgrwt>
<rscale>  4 0.19054573E+03</rscale>
<asrwt>0</asrwt>
<pdfrwt beam="1">  1       21 0.33586657E-01 0.19054573E+03</pdfrwt>
<pdfrwt beam="2">  1       21 0.18531577E+00 0.19054573E+03</pdfrwt>
<totfact> 0.14338104E+03</totfact>
</mgrwt>
</event>
<event>
 6      1 +2.5168323e+02 1.94648500e+02 7.54677100e-03 1.16820100e-01
       21 -1    0    0  504  502 +0.0000000000e+00 +0.0000000000e+00 +1.1992770807e+03 1.1992770807e+03 0.0000000000e+00 0.0000e+00 1.0000e+00
       21 -1    0    0  501  503 -0.0000000000e+00 -0.0000000000e+00 -4.2283867014e+02 4.2283867014e+02 0.0000000000e+00 0.0000e+00 -1.0000e+00
        6  1    1    2  501    0 +4.1878633860e+01 -9.7177485183e+01 -1.2627062102e+02 2.3889443973e+02 1.7300000000e+02 0.0000e+00 -1.0000e+00
       -6  1    1    2    0  505 -3.9950538831e+01 +9.9131112468e+01 +4.2329391236e+02 4.6960596169e+02 1.7300000000e+02 0.0000e+00 1.0000e+00
       21  1    1    2  504  503 -6.8300981609e+00 +2.0303328398e+01 -2.1638467576e+02 2.1744241373e+02 0.0000000000e+00 0.0000e+00 -1.0000e+00
       21  1    1    2  505  502 +4.9020031319e+00 -2.2256955682e+01 +6.9579979499e+02 6.9617293571e+02 0.0000000000e+00 0.0000e+00 1.0000e+00
<mgrwt>
<rscale>  4 0.19464848E+03</rscale>
<asrwt>0</asrwt>
<pdfrwt beam="1">  1       21 0.18450416E+00 0.19464848E+03</pdfrwt>
<pdfrwt beam="2">  1       21 0.65052104E-01 0.19464848E+03</pdfrwt>
<totfact> 0.36821372E+02</totfact>
</mgrwt>
</event>
<event>
 6      1 +2.5168323e+02 3.15440500e+02 7.54677100e-03 1.16820100e-01
       21 -1    0    0  503  502 +0.0000000000e+00 +0.0000000000e+00 +9.3189087835e+02 9.3189087835e+02 0.0000000000e+00 0.0000e+00 1.0000e+00
       21 -1    0    0  501  503 -0.0000000000e+00 -0.0000000000e+00 -1.0776121242e+03 1.0776121242e+03 0.0000000000e+00 0.0000e+00 1.0000e+00
        6  1    1    2  501    0 -2.7413998698e+02 -3.5067350151e+01 -7.0528708608e+02 7.7700793130e+02 1.7300000000e+02 0.0000e+00 -1.0000e+00
       -6  1    1    2    0  504 +2.2466334894e+02 +1.0210770737e+02 -2.5526584788e+02 3.9495475356e+02 1.7300000000e+02 0.0000e+00 1.0000e+00
       21  1    1    2  504  505 +1.1333386952e+01 -1.6666956662e+01 -1.0728844879e-01 2.0155510785e+01 0.0000000000e+00 0.0000e+00 -1.0000e+00
       21  1    1    2  505  502 +3.8143251088e+01 -5.0373400558e+01 +8.1493897655e+02 8.1738480692e+02 0.0000000000e+00 0.0000e+00 1.0000e+00
<mgrwt>
<rscale>  4 0.31544048E+03</rscale>
<asrwt>0</asrwt>
<pdfrwt beam="1">  1       21 0.14336783E+00 0.31544048E+03</pdfrwt>
<pdfrwt beam="2">  1       21 0.16578648E+00 0.31544048E+03</pdfrwt>
<totfact> 0.66911015E+01</totfact>
</mgrwt>
</event>
<event>
 6      1 +2.5168323e+02 1.87962000e+02 7.54677100e-03 1.03924000e-01
       21 -1    0    0  504  502 +0.0000000000e+00 +0.0000000000e+00 +1.5379620448e+02 1.5379620448e+02 0.0000000000e+00 0.0000e+00 -1.0000e+00
       21 -1    0    0  501  503 -0.0000000000e+00 -0.0000000000e+00 -1.0917531525e+03 1.0917531525e+03 0.0000000000e+00 0.0000e+00 -1.0000e+00
        6  1    1    2  501    0 -5.2827559941e+01 -1.0687958234e+01 -5.0596362661e+02 5.3743201895e+02 1.7300000000e+02 0.0000e+00 1.0000e+00
       -6  1    1    2    0  505 +9.6527976263e+01 -1.8151056910e+01 -5.4334747786e+02 5.7862128613e+02 1.7300000000e+02 0.0000e+00 -1.0000e+00
       21  1    1    2  504  503 -2.1464640148e+01 +1.3350978542e+01 +1.4977011767e+01 2.9381801956e+01 0.0000000000e+00 0.0000e+00 -1.0000e+00
       21  1    1    2  505  502 -2.2235776173e+01 +1.5488036602e+01 +9.6377144695e+01 1.0011424993e+02 0.0000000000e+00 0.0000e+00 -1.0000e+00
<mgrwt>
<rscale>  4 0.18796200E+03</rscale>
<asrwt>0</asrwt>
<pdfrwt beam="1">  1       21 0.23660955E-01 0.18796200E+03</pdfrwt>
<pdfrwt beam="2">  1       21 0.16796202E+00 0.18796200E+03</pdfrwt>
<totfact> 0.37259485E+03</totfact>
</mgrwt>
</event>
<event>
 6      1 +2.5168323e+02 2.01875100e+02 7.54677100e-03 1.17132900e-01
       21 -1    0    0  503  502 +0.0000000000e+00 +0.0000000000e+00 +1.1541945551e+03 1.1541945551e+03 0.0000000000e+00 0.0000e+00 -1.0000e+00
       21 -1    0    0  504  503 -0.0000000000e+00 -0.0000000000e+00 -2.4665896275e+02 2.4665896275e+02 0.0000000000e+00 0.0000e+00 1.0000e+00
        6  1    1    2  501    0 +3.7559881290e+01 -6.4002807404e+01 +1.3383465118e+02 2.3097146554e+02 1.7300000000e+02 0.0000e+00 -1.0000e+00
       -6  1    1    2    0  505 -8.2921339808e+01 +1.1090005175e+02 +2.7390415527e+02 3.5231698277e+02 1.7300000000e+02 0.0000e+00 -1.0000e+00
       21  1    1    2  504  501 +1.0812278138e+01 -2.6074051360e+01 -1.5700675708e+02 1.5952392698e+02 0.0000000000e+00 0.0000e+00 1.0000e+00
       21  1    1    2  505  502 +3.4549180380e+01 -2.0823192987e+01 +6.5680354298e+02 6.5804114256e+02 0.0000000000e+00 0.0000e+00 -1.0000e+00
<mgrwt>
<rscale>  4 0.20187506E+03</rscale>
<asrwt>0</asrwt>
<pdfrwt beam="1">  1       21 0.17756839E+00 0.20187506E+03</pdfrwt>
<pdfrwt beam="2">  1       21 0.37947533E-01 0.20187506E+03</pdfrwt>
<totfact> 0.12539629E+03</totfact>
</mgrwt>
</event>
<event>
 6      1 +2.5168323e+02 2.04132500e+02 7.54677100e-03 1.06249800e-01
       21 -1    0    0  505  502 +0.0000000000e+00 +0.0000000000e+00 +5.1841677743e+02 5.1841677743e+02 0.0000000000e+00 0.0000e+00 1.0000e+00
       21 -1    0    0  501  503 -0.0000000000e+00 -0.0000000000e+00 -1.8243222555e+02 1.8243222555e+02 0.0000000000e+00 0.0000e+00 1.0000e+00
        6  1    1    2  501    0 +1.0088234652e+02 -8.4164941706e+01 -3.4522562139e+01 2.1995861554e+02 1.7300000000e+02 0.0000e+00 -1.0000e+00
       -6  1    1    2    0  502 -2.7490931258e+01 +6.4689804750e+01 +1.2888878893e+02 2.2689610409e+02 1.7300000000e+02 0.0000e+00 -1.0000e+00
       21  1    1    2  504  503 -3.9332267385e+01 +4.2752590986e+00 +1.4861291359e+02 1.5378915171e+02 0.0000000000e+00 0.0000e+00 1.0000e+00
       21  1    1    2  505  504 -3.4059147878e+01 +1.5199877858e+01 +9.3005411490e+01 1.0020513164e+02 0.0000000000e+00 0.0000e+00 1.0000e+00
<mgrwt>
<rscale>  4 0.20413251E+03</rscale>
<asrwt>0</asrwt>
<pdfrwt beam="1">  1       21 0.79756427E-01 0.20413251E+03</pdfrwt>
<pdfrwt beam="2">  1       21 0.28066496E-01 0.20413251E+03</pdfrwt>
<totfact> 0.16674185E+04</totfact>
</mgrwt>
</event>
<event>
 6      1 +2.5168323e+02 2.21200700e+02 7.54677100e-03 1.12068800e-01
       21 -1    0    0  504  502 +0.0000000000e+00 +0.0000000000e+00 +7.8835388658e+02 7.8835388658e+02 0.0000000000e+00 0.0000e+00 -1.0000e+00
       21 -1    0    0  502  503 -0.0000000000e+00 -0.0000000000e+00 -1.2669508413e+03 1.2669508413e+03 0.0000000000e+00 0.0000e+00 -1.0000e+00
        6  1    1    2  501    0 +1.6745444692e+02 -1.4472062461e+02 -1.0180031034e+02 2.9879316285e+02 1.7300000000e+02 0.0000e+00 1.0000e+00
       -6  1    1    2    0  505 -1.1518373745e+02 -8.8686165026e+01 +6.4501388659e+02 6.8345039552e+02 1.7300000000e+02 0.0000e+00 -1.0000e+00
       21  1    1    2  504  501 -5.2625141931e+01 +6.2667274444e+01 -7.5077100584e+01 1.1105477874e+02 0.0000000000e+00 0.0000e+00 1.0000e+00
       21  1    1    2  505  503 +3.5443246274e-01 +1.7073951519e+02 -9.4673343037e+02 9.6200639075e+02 0.0000000000e+00 0.0000e+00 -1.0000e+00
<mgrwt>
<rscale>  4 0.22120069E+03</rscale>
<asrwt>0</asrwt>
<pdfrwt beam="1">  1       21 0.12128521E+00 0.22120069E+03</pdfrwt>
<pdfrwt beam="2">  1       21 0.19491551E+00 0.22120069E+03</pdfrwt>
<totfact> 0.71552010E+01</totfact>
</mgrwt>
</event>
<event>
 6      1 +2.5168323e+02 3.59044200e+02 7.54677100e-03 1.06249800e-01
       21 -1    0    0  501  502 +0.0000000000e+00 +0.0000000000e+00 +1.9700977629e+03 1.9700977629e+03 0.0000000000e+00 0.0000e+00 -1.0000e+00
       21 -1    0    0  502  503 -0.0000000000e+00 -0.0000000000e+00 -1.6124333929e+02 1.6124333929e+02 0.0000000000e+00 0.0000e+00 -1.0000e+00
        6  1    1    2  501    0 -2.7700624067e+02 +8.5809217996e+01 +1.1523004082e+03 1.2007584728e+03 1.7300000000e+02 0.0000e+00 -1.0000e+00
       -6  1    1    2    0  504 -1.4144933104e+02 -3.8885682335e+01 +3.0343910736e+02 3.7884601280e+02 1.7300000000e+02 0.0000e+00 1.0000e+00
       21  1    1    2  504  505 +3.8510702174e+02 -4.2628750989e+01 +3.4053025498e+02 5.1583474404e+02 0.0000000000e+00 0.0000e+00 -1.0000e+00
       21  1    1    2  505  503 +3.3348549964e+01 -4.2947846728e+00 +1.2584653073e+01 3.5901872556e+01 0.0000000000e+00 0.0000e+00 -1.0000e+00
<mgrwt>
<rscale>  4 0.32009807E+03</rscale>
<asrwt>0</asrwt>
<pdfrwt beam="1">  1       21 0.30309195E+00 0.35904420E+03</pdfrwt>
<pdfrwt beam="2">  1       21 0.24806669E-01 0.35904420E+03</pdfrwt>
<totfact> 0.42407294E+02</totfact>
</mgrwt>
</event>
<event>
 6      1 +2.5168323e+02 2.07436600e+02 7.54677100e-03 1.16820100e-01
       21 -1    0    0  505  502 +0.0000000000e+00 +0.0000000000e+00 +1.2241335011e+03 1.2241335011e+03 0.0000000000e+00 0.0000e+00 1.0000e+00
       21 -1    0    0  501  503 -0.0000000000e+00 -0.0000000000e+00 -5.9851397005e+02 5.9851397005e+02 0.0000000000e+00 0.0000e+00 1.0000e+00
        6  1    1    2  501    0 -1.2262060424e+02 -4.9828990306e+00 +1.3181726750e+02 2.4973072273e+02 1.7300000000e+02 0.0000e+00 -1.0000e+00
       -6  1    1    2    0  502 +7.2932544208e+01 -9.2339100162e+01 +8.4007594899e+02 8.6573798894e+02 1.7300000000e+02 0.0000e+00 1.0000e+00
       21  1    1    2  504  503 +6.5642949950e+01 +1.2161408575e+02 -5.1640776898e+02 5.3458017789e+02 0.0000000000e+00 0.0000e+00 1.0000e+00
       21  1    1    2  505  504 -1.5954889919e+01 -2.4292086556e+01 +1.7013408356e+02 1.7259858160e+02 0.0000000000e+00 0.0000e+00 -1.0000e+00
<mgrwt>
<rscale>  4 0.20743656E+03</rscale>
<asrwt>0</asrwt>
<pdfrwt beam="1">  1       21 0.18832823E+00 0.20743656E+03</pdfrwt>
<pdfrwt beam="2">  1       21 0.92079073E-01 0.20743656E+03</pdfrwt>
<totfact> 0.15632021E+02</totfact>
</mgrwt>
</event>
<event>
 6      1 +2.5168323e+02 2.08800100e+02 7.54677100e-03 1.16820100e-01
       21 -1    0    0  505  502 +0.0000000000e+00 +0.0000000000e+00 +7.8440822912e+01 7.8440822912e+01 0.0000000000e+00 0.0000e+00 1.0000e+00
       21 -1    0    0  504  503 -0.0000000000e+00 -0.0000000000e+00 -1.3286755882e+03 1.3286755882e+03 0.0000000000e+00 0.0000e+00 1.0000e+00
        6  1    1    2  501    0 +8.2361753556e+01 -1.1851438011e+02 -2.1224561201e+02 3.0952595458e+02 1.7300000000e+02 0.0000e+00 1.0000e+00
       -6  1    1    2    0  503 -8.3718989310e+00 +5.5259801064e+01 -6.3996648366e+02 6.6528928634e+02 1.7300000000e+02 0.0000e+00 1.0000e+00
       21  1    1    2  504  502 -1.0282697517e+02 +4.5188605324e+01 -3.7437956808e+02 3.9086501234e+02 0.0000000000e+00 0.0000e+00 1.0000e+00
       21  1    1    2  505  501 +2.8837120543e+01 +1.8065973719e+01 -2.3643101528e+01 4.1436157852e+01 0.0000000000e+00 0.0000e+00 -1.0000e+00
<mgrwt>
<rscale>  4 0.20880010E+03</rscale>
<asrwt>0</asrwt>
<pdfrwt beam="1">  1       21 0.12067819E-01 0.20880010E+03</pdfrwt>
<pdfrwt beam="2">  1       21 0.20441163E+00 0.20880010E+03</pdfrwt>
<totfact> 0.72081668E+03</totfact>
</mgrwt>
</event>
<event>
 6      1 +2.5168323e+02 2.60206500e+02 7.54677100e-03 1.12989000e-01
       21 -1    0    0  501  502 +0.0000000000e+00 +0.0000000000e+00 +2.0613237252e+03 2.0613237252e+03 0.0000000000e+00 0.0000e+00 1.0000e+00
       21 -1    0    0  502  503 -0.0000000000e+00 -0.0000000000e+00 -5.5168235419e+01 5.5168235419e+01 0.0000000000e+00 0.0000e+00 1.0000e+00
        6  1    1    2  501    0 -9.4660579830e+01 -1.8078339423e+02 +1.2682585700e+03 1.2961682227e+03 1.7300000000e+02 0.0000e+00 1.0000e+00
       -6  1    1    2    0  505 +1.1535281542e+02 +1.4051754378e+02 +7.0872780736e+02 7.5184809441e+02 1.7300000000e+02 0.0000e+00 1.0000e+00
       21  1    1    2  504  503 +7.6208139777e+00 +3.0065771816e+01 +9.1761087004e+00 3.2345454263e+01 0.0000000000e+00 0.0000e+00 1.0000e+00
       21  1    1    2  505  504 -2.8313049568e+01 +1.0200078625e+01 +1.9993003652e+01 3.6130189244e+01 0.0000000000e+00 0.0000e+00 -1.0000e+00
<mgrwt>
<rscale>  4 0.26020649E+03</rscale>
<asrwt>0</asrwt>
<pdfrwt beam="1">  1       21 0.31712667E+00 0.26020649E+03</pdfrwt>
<pdfrwt beam="2">  1       21 0.84874224E-02 0.26020649E+03</pdfrwt>
<totfact> 0.27343138E+03</totfact>
</mgrwt>
</event>
<event>
 6      1 +2.5168323e+02 2.56788600e+02 7.54677100e-03 1.07064900e-01
       21 -1    0    0  501  502 +0.0000000000e+00 +0.0000000000e+00 +3.7058078446e+02 3.7058078446e+02 0.0000000000e+00 0.0000e+00 1.0000e+00
       21 -1    0    0  504  503 -0.0000000000e+00 -0.0000000000e+00 -1.1848509698e+03 1.1848509698e+03 0.0000000000e+00 0.0000e+00 -1.0000e+00
        6  1    1    2  501    0 +2.0356368098e+01 +2.4526413616e+02 -6.0075740524e+02 6.7186854232e+02 1.7300000000e+02 0.0000e+00 -1.0000e+00
       -6  1    1    2    0  503 +1.8714244991e+02 -9.2077907720e+01 -4.1444889396e+02 4.9517423534e+02 1.7300000000e+02 0.0000e+00 -1.0000e+00
       21  1    1    2  504  505 -1.7938280867e+02 -9.8820464293e+01 +3.0203087224e+01 2.0701667249e+02 0.0000000000e+00 0.0000e+00 1.0000e+00
       21  1    1    2  505  502 -2.8116009334e+01 -5.4365764146e+01 +1.7073302666e+02 1.8137230407e+02 0.0000000000e+00 0.0000e+00 1.0000e+00
<mgrwt>
<rscale>  4 0.25678856E+03</rscale>
<asrwt>0</asrwt>
<pdfrwt beam="1">  1       21 0.57012428E-01 0.25678856E+03</pdfrwt>
<pdfrwt beam="2">  1       21 0.18228477E+00 0.25678856E+03</pdfrwt>
<totfact> 0.47470739E+02</totfact>
</mgrwt>
</event>
<event>
 6      1 +2.5168323e+02 2.24602900e+02 7.54677100e-03 1.04003000e-01
       21 -1    0    0  504  502 +0.0000000000e+00 +0.0000000000e+00 +9.3511068037e+01 9.3511068037e+01 0.0000000000e+00 0.0000e+00 1.0000e+00
       21 -1    0    0  505  503 -0.0000000000e+00 -0.0000000000e+00 -2.3428810077e+03 2.3428810077e+03 0.0000000000e+00 0.0000e+00 -1.0000e+00
        6  1    1    2  501    0 +1.2444453045e+02 +5.0294425852e+01 -1.8936209347e+02 2.8948743129e+02 1.7300000000e+02 0.0000e+00 1.0000e+00
       -6  1    1    2    0  503 -6.1489578144e+01 -1.5846345214e+02 -3.6332258833e+02 4.3683399258e+02 1.7300000000e+02 0.0000e+00 1.0000e+00
       21  1    1    2  504  501 -7.9416679273e+01 +6.5309366337e+01 -1.5971547919e+03 1.6004611059e+03 0.0000000000e+00 0.0000e+00 -1.0000e+00
       21  1    1    2  505  502 +1.6461726964e+01 +4.2859659954e+01 -9.9530465911e+01 1.0960954589e+02 0.0000000000e+00 0.0000e+00 1.0000e+00
<mgrwt>
<rscale>  4 0.22460286E+03</rscale>
<asrwt>0</asrwt>
<pdfrwt beam="1">  1       21 0.14386318E-01 0.22460286E+03</pdfrwt>
<pdfrwt beam="2">  1       21 0.36044325E+00 0.22460286E+03</pdfrwt>
<totfact> 0.61299480E+02</totfact>
</mgrwt>
</event>
<event>
 6      1 +2.5168323e+02 1.77637500e+02 7.54677100e-03 1.11671100e-01
       21 -1    0    0  503  502 +0.0000000000e+00 +0.0000000000e+00 +2.0038097307e+02 2.0038097307e+02 0.0000000000e+00 0.0000e+00 -1.0000e+00
       21 -1    0    0  501  503 -0.0000000000e+00 -0.0000000000e+00 -1.7551059386e+03 1.7551059386e+03 0.0000000000e+00 0.0000e+00 -1.0000e+00
        6  1    1    2  501    0 +2.9896761272e+01 -2.1926282301e+01 -1.2285651626e+03 1.2412396775e+03 1.7300000000e+02 0.0000e+00 -1.0000e+00
       -6  1    1    2    0  504 -6.5420835507e+01 -2.6853048723e+01 -4.7889416571e+02 5.1407158441e+02 1.7300000000e+02 0.0000e+00 1.0000e+00
       21  1    1    2  504  505 +5.5306161424e+01 +6.4710080604e+01 +1.5264528839e+02 1.7477628584e+02 0.0000000000e+00 0.0000e+00 -1.0000e+00
       21  1    1    2  505  502 -1.9782087189e+01 -1.5930749580e+01 +8.9074370552e-02 2.5399363969e+01 0.0000000000e+00 0.0000e+00 1.0000e+00
<mgrwt>
<rscale>  4 0.17763747E+03</rscale>
<asrwt>0</asrwt>
<pdfrwt beam="1">  1       21 0.30827842E-01 0.17763747E+03</pdfrwt>
<pdfrwt beam="2">  1       21 0.27001630E+00 0.17763747E+03</pdfrwt>
<totfact> 0.52465416E+02</totfact>
</mgrwt>
</event>
<event>
 6      1 +2.5168323e+02 1.75716200e+02 7.54677100e-03 9.87464100e-02
       21 -1    0    0  503  502 +0.0000000000e+00 +0.0000000000e+00 +6.8322235324e+02 6.8322235324e+02 0.0000000000e+00 0.0000e+00 -1.0000e+00
       21 -1    0    0  505  503 -0.0000000000e+00 -0.0000000000e+00 -6.2991926703e+02 6.2991926703e+02 0.0000000000e+00 0.0000e+00 -1.0000e+00
        6  1    1    2  501    0 -2.5238820515e+01 -2.4974361398e+01 +5.2821601781e+02 5.5695769880e+02 1.7300000000e+02 0.0000e+00 -1.0000e+00
       -6  1    1    2    0  504 +2.9047376621e+01 -2.4564351453e+01 +3.8883563983e+01 1.8135073476e+02 1.7300000000e+02 0.0000e+00 -1.0000e+00
       21  1    1    2  504  502 +2.9163402440e+01 +5.9779704718e+01 -7.0216781955e+00 6.6883638528e+01 0.0000000000e+00 0.0000e+00 -1.0000e+00
       21  1    1    2  505  501 -3.2971958547e+01 -1.0240991867e+01 -5.0677481738e+02 5.0794954818e+02 0.0000000000e+00 0.0000e+00 -1.0000e+00
<mgrwt>
<rscale>  4 0.17571617E+03</rscale>
<asrwt>0</asrwt>
<pdfrwt beam="1">  1       21 0.10511113E+00 0.17571617E+03</pdfrwt>
<pdfrwt beam="2">  1       21 0.96910656E-01 0.17571617E+03</pdfrwt>
<totfact> 0.65659275E+02</totfact>
</mgrwt>
</event>
<event>
 6      1 +2.5168323e+02 1.81168300e+02 7.54677100e-03 1.07064900e-01
       21 -1    0    0  501  502 +0.0000000000e+00 +0.0000000000e+00 +1.3648707616e+03 1.3648707616e+03 0.0000000000e+00 0.0000e+00 -1.0000e+00
       21 -1    0    0  504  503 -0.0000000000e+00 -0.0000000000e+00 -1.0761448192e+03 1.0761448192e+03 0.0000000000e+00 0.0000e+00 -1.0000e+00
        6  1    1    2  501    0 -5.1753897861e+01 +8.6013090596e+00 +1.5228517633e+02 2.3637305978e+02 1.7300000000e+02 0.0000e+00 -1.0000e+00
       -6  1    1    2    0  503 +3.9147995011e+01 +3.8212447837e+01 -1.0092373729e+03 1.0254178815e+03 1.7300000000e+02 0.0000e+00 -1.0000e+00
       21  1    1    2  504  505 -6.1107572497e+01 -6.1374285537e+01 +1.0621559275e+02 1.3704995617e+02 0.0000000000e+00 0.0000e+00 -1.0000e+00
       21  1    1    2  505  502 +7.3713475347e+01 +1.4560528641e+01 +1.0394625463e+03 1.0421746834e+03 0.0000000000e+00 0.0000e+00 -1.0000e+00
<mgrwt>
<rscale>  4 0.18116833E+03</rscale>
<asrwt>0</asrwt>
<pdfrwt beam="1">  1       21 0.20998012E+00 0.18116833E+03</pdfrwt>
<pdfrwt beam="2">  1       21 0.16556074E+00 0.18116833E+03</pdfrwt>
<totfact> 0.27177259E+01</totfact>
</mgrwt>
</event>
<event>
 6      1 +2.5168323e+02 2.91632500e+02 7.54677100e-03 1.06249800e-01
       21 -1    0    0  505  502 +0.0000000000e+00 +0.0000000000e+00 +1.4311042032e+03 1.4311042032e+03 0.0000000000e+00 0.0000e+00 -1.0000e+00
       21 -1    0    0  501  503 -0.0000000000e+00 -0.0000000000e+00 -1.5889480516e+02 1.5889480516e+02 0.0000000000e+00 0.0000e+00 1.0000e+00
        6  1    1    2  501    0 +1.2122078644e+02 +2.1672445160e+02 +8.4305220912e+01 3.1416609820e+02 1.7300000000e+02 0.0000e+00 1.0000e+00
       -6  1    1    2    0  502 +3.5838514373e+01 -2.0664834987e+02 +9.4478894089e+02 9.8312922978e+02 1.7300000000e+02 0.0000e+00 -1.0000e+00
       21  1    1    2  504  503 -5.3517668105e+01 -2.2780773183e+01 +9.8471041140e+01 1.1436629910e+02 0.0000000000e+00 0.0000e+00 1.0000e+00
       21  1    1    2  505  504 -1.0354163271e+02 +1.2704671455e+01 +1.4464419505e+02 1.7833738123e+02 0.0000000000e+00 0.0000e+00 1.0000e+00
<mgrwt>
<rscale>  4 0.29163247E+03</rscale>
<asrwt>0</asrwt>
<pdfrwt beam="1">  1       21 0.22016987E+00 0.29163247E+03</pdfrwt>
<pdfrwt beam="2">  1       21 0.24445356E-01 0.29163247E+03</pdfrwt>
<totfact> 0.14497252E+03</totfact>
</mgrwt>
</event>
<event>
 6      1 +2.5168323e+02 2.14358200e+02 7.54677100e-03 1.16820100e-01
       21 -1    0    0  505  502 +0.0000000000e+00 +0.0000000000e+00 +4.1018654219e+02 4.1018654219e+02 0.0000000000e+00 0.0000e+00 1.0000e+00
       21 -1    0    0  501  503 -0.0000000000e+00 -0.0000000000e+00 -6.7222619053e+02 6.7222619053e+02 0.0000000000e+00 0.0000e+00 -1.0000e+00
        6  1    1    2  501    0 +8.2941286345e+01 +1.2213392297e+02 +1.4573122546e+02 2.7011579405e+02 1.7300000000e+02 0.0000e+00 1.0000e+00
       -6  1    1    2    0  504 +3.9340243623e+01 -1.2968584703e+02 -2.6404532938e+01 2.2134198212e+02 1.7300000000e+02 0.0000e+00 -1.0000e+00
       21  1    1    2  504  502 -5.0511594962e+01 +5.3904654630e+00 -4.7233750899e+02 4.7506125999e+02 0.0000000000e+00 0.0000e+00 -1.0000e+00
       21  1    1    2  505  503 -7.1769935006e+01 +2.1614585894e+00 +9.0971168125e+01 1.1589369657e+02 0.0000000000e+00 0.0000e+00 1.0000e+00
<mgrwt>
<rscale>  4 0.21435821E+03</rscale>
<asrwt>0</asrwt>
<pdfrwt beam="1">  1       21 0.63105623E-01 0.21435821E+03</pdfrwt>
<pdfrwt beam="2">  1       21 0.10341941E+00 0.21435821E+03</pdfrwt>
<totfact> 0.17265746E+03</totfact>
</mgrwt>
</event>
<event>
 6      1 +2.5168323e+02 2.06841200e+02 7.54677100e-03 1.16820100e-01
       21 -1    0    0  501  502 +0.0000000000e+00 +0.0000000000e+00 +1.6636870266e+02 1.6636870266e+02 0.0000000000e+00 0.0000e+00 -1.0000e+00
       21 -1    0    0  504  503 -0.0000000000e+00 -0.0000000000e+00 -7.3979247858e+02 7.3979247858e+02 0.0000000000e+00 0.0000e+00 -1.0000e+00
        6  1    1    2  501    0 -9.4660592568e+01 +2.6634110146e+01 -8.3051821296e+01 2.1563072283e+02 1.7300000000e+02 0.0000e+00 -1.0000e+00
       -6  1    1    2    0  503 +9.5008062691e+01 -1.4907630020e+02 -1.7079229660e+02 3.0058157601e+02 1.7300000000e+02 0.0000e+00 1.0000e+00
       21  1    1    2  504  505 -3.8744852056e+01 +1.3639957570e+02 -3.1899418498e+02 3.4908924055e+02 0.0000000000e+00 0.0000e+00 -1.0000e+00
       21  1    1    2  505  502 +3.8397381933e+01 -1.3957385651e+01 -5.8547303877e-01 4.0859641851e+01 0.0000000000e+00 0.0000e+00 -1.0000e+00
<mgrwt>
<rscale>  4 0.20684119E+03</rscale>
<asrwt>0</asrwt>
<pdfrwt beam="1">  1       21 0.25595185E-01 0.20684119E+03</pdfrwt>
<pdfrwt beam="2">  1       21 0.11381423E+00 0.20684119E+03</pdfrwt>
<totfact> 0.86169082E+03</totfact>
</mgrwt>
</event>
<event>
 6      1 +2.5168323e+02 2.61467300e+02 7.54677100e-03 1.11910500e-01
       21 -1    0    0  501  502 +0.0000000000e+00 +0.0000000000e+00 +3.3722213100e+02 3.3722213100e+02 0.0000000000e+00 0.0000e+00 -1.0000e+00
       21 -1    0    0  505  503 -0.0000000000e+00 -0.0000000000e+00 -1.1349166482e+03 1.1349166482e+03 0.0000000000e+00 0.0000e+00 1.0000e+00
        6  1    1    2  501    0 +5.4641415914e+01 +1.8146436543e+02 -4.2687595632e+01 2.6012733627e+02 1.7300000000e+02 0.0000e+00 1.0000e+00
       -6  1    1    2    0  504 +4.8246128244e+01 -2.0353903234e+02 +1.3763634407e+02 3.0434945340e+02 1.7300000000e+02 0.0000e+00 -1.0000e+00
       21  1    1    2  504  503 +2.4442173481e+01 -1.2991355204e+01 -8.7957643625e+01 9.2210315185e+01 0.0000000000e+00 0.0000e+00 1.0000e+00
       21  1    1    2  505  502 -1.2732971764e+02 +3.5066022121e+01 -8.0468562200e+02 8.1545167432e+02 0.0000000000e+00 0.0000e+00 1.0000e+00
<mgrwt>
<rscale>  4 0.26146728E+03</rscale>
<asrwt>0</asrwt>
<pdfrwt beam="1">  1       21 0.51880328E-01 0.26146728E+03</pdfrwt>
<pdfrwt beam="2">  1       21 0.17460256E+00 0.26146728E+03</pdfrwt>
<totfact> 0.65322926E+02</totfact>
</mgrwt>
</event>
<event>
 6      1 +2.5168323e+02 1.82578000e+02 7.54677100e-03 1.06249800e-01
       21 -1    0    0  505  502 +0.0000000000e+00 +0.0000000000e+00 +7.0589621715e+02 7.0589621715e+02 0.0000000000e+00 0.0000e+00 1.0000e+00
       21 -1    0    0  501  503 -0.0000000000e+00 -0.0000000000e+00 -1.2215220355e+03 1.2215220355e+03 0.0000000000e+00 0.0000e+00 -1.0000e+00
        6  1    1    2  501    0 -1.8197271524e+01 -1.7381339296e+00 -4.6884368434e+02 5.0007755614e+02 1.7300000000e+02 0.0000e+00 -1.0000e+00
       -6  1    1    2    0  502 -8.5660087623e+01 +1.0009780257e+02 -6.8316313277e+02 7.1693659878e+02 1.7300000000e+02 0.0000e+00 -1.0000e+00
       21  1    1    2  504  503 -5.3150020497e+01 +9.9663200155e-01 +6.3391669609e+00 5.3535997160e+01 0.0000000000e+00 0.0000e+00 1.0000e+00
       21  1    1    2  505  504 +1.5700737964e+02 -9.9356300643e+01 +6.3004183180e+02 6.5686810058e+02 0.0000000000e+00 0.0000e+00 1.0000e+00
<mgrwt>
<rscale>  4 0.18257804E+03</rscale>
<asrwt>0</asrwt>
<pdfrwt beam="1">  1       21 0.10859942E+00 0.18257804E+03</pdfrwt>
<pdfrwt beam="2">  1       21 0.18792647E+00 0.18257804E+03</pdfrwt>
<totfact> 0.11004788E+02</totfact>
</mgrwt>
</event>
<event>
 6      1 +2.5168323e+02 1.77705500e+02 7.54677100e-03 1.15942100e-01
       21 -1    0    0  504  502 +0.0000000000e+00 +0.0000000000e+00 +2.1873111217e+02 2.1873111217e+02 0.0000000000e+00 0.0000e+00 -1.0000e+00
       21 -1    0    0  501  503 -0.0000000000e+00 -0.0000000000e+00 -8.6714798448e+02 8.6714798448e+02 0.0000000000e+00 0.0000e+00 -1.0000e+00
        6  1    1    2  501    0 +2.9352470437e+01 -4.5852445232e+01 +3.0135413471e+01 1.8385091079e+02 1.7300000000e+02 0.0000e+00 -1.0000e+00
       -6  1    1    2    0  502 -1.0556899129e+01 +2.6457905313e+01 +4.1587857774e+01 1.8019439166e+02 1.7300000000e+02 0.0000e+00 1.0000e+00
       21  1    1    2  504  505 +9.2342354052e+00 +1.8605942872e+01 -2.5200523286e+02 2.5285982204e+02 0.0000000000e+00 0.0000e+00 -1.0000e+00
       21  1    1    2  505  503 -2.8029806714e+01 +7.8859704633e-01 -4.6813491069e+02 4.6897397215e+02 0.0000000000e+00 0.0000e+00 -1.0000e+00
<mgrwt>
<rscale>  4 0.17770550E+03</rscale>
<asrwt>0</asrwt>
<pdfrwt beam="1">  1       21 0.33650940E-01 0.17770550E+03</pdfrwt>
<pdfrwt beam="2">  1       21 0.13340738E+00 0.17770550E+03</pdfrwt>
<totfact> 0.34900690E+03</totfact>
</mgrwt>
</event>
<event>
 6      1 +2.5168323e+02 2.48384400e+02 7.54677100e-03 1.07064900e-01
       21 -1    0    0  505  502 +0.0000000000e+00 +0.0000000000e+00 +1.6505262917e+03 1.6505262917e+03 0.0000000000e+00 0.0000e+00 -1.0000e+00
       21 -1    0    0  504  503 -0.0000000000e+00 -0.0000000000e+00 -5.5919635179e+02 5.5919635179e+02 0.0000000000e+00 0.0000e+00 -1.0000e+00
        6  1    1    2  501    0 +2.8245882076e+02 -1.2862054128e+01 +5.8302050979e+02 6.7066409826e+02 1.7300000000e+02 0.0000e+00 1.0000e+00
       -6  1    1    2    0  503 -1.7232932977e+02 -1.9949405121e+01 -4.8032227192e+02 5.3919742355e+02 1.7300000000e+02 0.0000e+00 -1.0000e+00
       21  1    1    2  504  502 -8.2679175748e+01 +2.9236585761e+01 +9.3854922872e+02 9.4263740578e+02 0.0000000000e+00 0.0000e+00 -1.0000e+00
       21  1    1    2  505  501 -2.7450315242e+01 +3.5748734884e+00 +5.0082473352e+01 5.7223715926e+01 0.0000000000e+00 0.0000e+00 1.0000e+00
<mgrwt>
<rscale>  4 0.24838437E+03</rscale>
<asrwt>0</asrwt>
<pdfrwt beam="1">  1       21 0.25392712E+00 0.24838437E+03</pdfrwt>
<pdfrwt beam="2">  1       21 0.86030209E-01 0.24838437E+03</pdfrwt>
<totfact> 0.67955732E+01</totfact>
</mgrwt>
</event>
<event>
 6      1 +2.5168323e+02 9.70449100e+02 7.54677100e-03 1.09842800e-01
       21 -1    0    0  504  502 +0.0000000000e+00 +0.0000000000e+00 +1.4742114075e+03 1.4742114075e+03 0.0000000000e+00 0.0000e+00 -1.0000e+00
       21 -1    0    0  505  503 -0.0000000000e+00 -0.0000000000e+00 -1.3407345797e+03 1.3407345797e+03 0.0000000000e+00 0.0000e+00 1.0000e+00
        6  1    1    2  501    0 +3.5402381330e+02 -7.0685690166e+02 +7.3384991411e+02 1.0924487339e+03 1.7300000000e+02 0.0000e+00 1.0000e+00
       -6  1    1    2    0  503 -4.3076447381e+02 +8.9831472162e+02 -8.8355510500e+02 1.3428052705e+03 1.7300000000e+02 0.0000e+00 1.0000e+00
       21  1    1    2  504  501 +8.6291525734e+01 -2.1266783544e+02 +2.5304550560e+02 3.4162239908e+02 0.0000000000e+00 0.0000e+00 -1.0000e+00
       21  1    1    2  505  502 -9.5508652239e+00 +2.1210015477e+01 +3.0136513113e+01 3.8069583734e+01 0.0000000000e+00 0.0000e+00 1.0000e+00
<mgrwt>
<rscale>  4 0.97044912E+03</rscale>
<asrwt>0</asrwt>
<pdfrwt beam="1">  1       21 0.22680176E+00 0.97044912E+03</pdfrwt>
<pdfrwt beam="2">  1       21 0.20626686E+00 0.97044912E+03</pdfrwt>
<totfact> 0.63802016E+00</totfact>
</mgrwt>
</event>
<event>
 6      1 +2.5168323e+02 1.77639800e+02 7.54677100e-03 1.05831300e-01
       21 -1    0    0  504  502 +0.0000000000e+00 +0.0000000000e+00 +9.9543656526e+02 9.9543656526e+02 0.0000000000e+00 0.0000e+00 1.0000e+00
       21 -1    0    0  501  503 -0.0000000000e+00 -0.0000000000e+00 -4.9744326645e+02 4.9744326645e+02 0.0000000000e+00 0.0000e+00 1.0000e+00
        6  1    1    2  501    0 +1.7735572250e+00 -4.3893309608e+01 -2.9646910644e+02 3.4605302947e+02 1.7300000000e+02 0.0000e+00 -1.0000e+00
       -6  1    1    2    0  505 -5.8706063929e+01 +3.0492752233e+01 -1.1565852234e+02 2.1836232200e+02 1.7300000000e+02 0.0000e+00 1.0000e+00
       21  1    1    2  504  503 -1.9218172329e+01 +9.3105689910e+00 +7.5086409607e+00 2.2636354204e+01 0.0000000000e+00 0.0000e+00 -1.0000e+00
       21  1    1    2  505  502 +7.6150679033e+01 +4.0899883847e+00 +9.0261228663e+02 9.0582812602e+02 0.0000000000e+00 0.0000e+00 1.0000e+00
<mgrwt>
<rscale>  4 0.17763984E+03</rscale>
<asrwt>0</asrwt>
<pdfrwt beam="1">  1       21 0.15314409E+00 0.17763984E+03</pdfrwt>
<pdfrwt beam="2">  1       21 0.76529734E-01 0.17763984E+03</pdfrwt>
<totfact> 0.43792934E+02</totfact>
</mgrwt>
</event>
<event>
 6      1 +2.5168323e+02 3.07126300e+02 7.54677100e-03 1.16820100e-01
       21 -1    0    0  505  502 +0.0000000000e+00 +0.0000000000e+00 +8.8813476802e+02 8.8813476802e+02 0.0000000000e+00 0.0000e+00 1.0000e+00
       21 -1    0    0  504  503 -0.0000000000e+00 -0.0000000000e+00 -1.6915917666e+02 1.6915917666e+02 0.0000000000e+00 0.0000e+00 -1.0000e+00
        6  1    1    2  501    0 -1.2749359826e+01 -2.6167181029e+02 +4.7812271520e+02 5.7198340296e+02 1.7300000000e+02 0.0000e+00 1.0000e+00
       -6  1    1    2    0  503 -4.4162733770e+01 +2.5263444709e+02 +1.7755915369e+02 3.5669421634e+02 1.7300000000e+02 0.0000e+00 -1.0000e+00
       21  1    1    2  504  502 +4.4277915053e+01 -6.6628603601e+00 -1.5425118717e+01 4.7358861441e+01 0.0000000000e+00 0.0000e+00 1.0000e+00
       21  1    1    2  505  501 +1.2634178544e+01 +1.5700223557e+01 +7.8718841191e+01 8.1257463938e+01 0.0000000000e+00 0.0000e+00 1.0000e+00
<mgrwt>
<rscale>  4 0.30712631E+03</rscale>
<asrwt>0</asrwt>
<pdfrwt beam="1">  1       21 0.13663612E+00 0.30712631E+03</pdfrwt>
<pdfrwt beam="2">  1       21 0.26024489E-01 0.30712631E+03</pdfrwt>
<totfact> 0.49541359E+03</totfact>
</mgrwt>
</event>
<event>
 6      1 +2.5168323e+02 3.28423300e+02 7.54677100e-03 1.16820100e-01
       21 -1    0    0  505  502 +0.0000000000e+00 +0.0000000000e+00 +2.1104056307e+02 2.1104056307e+02 0.0000000000e+00 0.0000e+00 1.0000e+00
       21 -1    0    0  504  503 -0.0000000000e+00 -0.0000000000e+00 -1.6416319022e+03 1.6416319022e+03 0.0000000000e+00 0.0000e+00 -1.0000e+00
        6  1    1    2  501    0 -3.3570673414e+02 +2.7710240590e+01 -3.0517763191e+02 4.8634273491e+02 1.7300000000e+02 0.0000e+00 1.0000e+00
       -6  1    1    2    0  503 +2.7012261835e+02 -7.9716329237e+01 -1.1380228992e+03 1.1850510712e+03 1.7300000000e+02 0.0000e+00 -1.0000e+00
       21  1    1    2  504  502 -2.4409125323e+01 -8.4208523355e-01 -5.2755921343e+01 5.8135202273e+01 0.0000000000e+00 0.0000e+00 -1.0000e+00
       21  1    1    2  505  501 +8.9993241116e+01 +5.2848173881e+01 +6.5365113382e+01 1.2314345690e+02 0.0000000000e+00 0.0000e+00 1.0000e+00
<mgrwt>
<rscale>  4 0.32842330E+03</rscale>
<asrwt>0</asrwt>
<pdfrwt beam="1">  1       21 0.32467778E-01 0.32842330E+03</pdfrwt>
<pdfrwt beam="2">  1       21 0.25255876E+00 0.32842330E+03</pdfrwt>
<totfact> 0.51226713E+02</totfact>
</mgrwt>
</event>
<event>
 6      1 +2.5168323e+02 1.94725700e+02 7.54677100e-03 1.16820100e-01
       21 -1    0    0  505  502 +0.0000000000e+00 +0.0000000000e+00 +1.5859667359e+02 1.5859667359e+02 0.0000000000e+00 0.0000e+00 1.0000e+00
       21 -1    0    0  501  503 -0.0000000000e+00 -0.0000000000e+00 -5.1098838194e+02 5.1098838194e+02 0.0000000000e+00 0.0000e+00 1.0000e+00
        6  1    1    2  501    0 -5.3573444380e+01 -6.9877941206e+01 -1.6368294073e+02 2.5391759627e+02 1.7300000000e+02 0.0000e+00 1.0000e+00
       -6  1    1    2    0  502 +1.0548219270e+02 +8.6160511611e+00 -2.0469004334e+02 2.8814535074e+02 1.7300000000e+02 0.0000e+00 1.0000e+00
       21  1    1    2  504  503 +5.1088146538e+00 +2.3929341678e+01 -3.4792916677e+01 4.2535402093e+01 0.0000000000e+00 0.0000e+00 1.0000e+00
       21  1    1    2  505  504 -5.7017562972e+01 +3.7332548367e+01 +5.0774192400e+01 8.4986706424e+01 0.0000000000e+00 0.0000e+00 1.0000e+00
<mgrwt>
<rscale>  4 0.19472573E+03</rscale>
<asrwt>0</asrwt>
<pdfrwt beam="1">  1       21 0.24399488E-01 0.19472573E+03</pdfrwt>
<pdfrwt beam="2">  1       21 0.78613597E-01 0.19472573E+03</pdfrwt>
<totfact> 0.22671649E+04</totfact>
</mgrwt>
</event>
<event>
 6      1 +2.5168323e+02 1.87543300e+02 7.54677100e-03 1.16820100e-01
       21 -1    0    0  505  502 +0.0000000000e+00 +0.0000000000e+00 +2.5301498238e+02 2.5301498238e+02 0.0000000000e+00 0.0000e+00 1.0000e+00
       21 -1    0    0  501  503 -0.0000000000e+00 -0.0000000000e+00 -2.6235621657e+02 2.6235621657e+02 0.0000000000e+00 0.0000e+00 1.0000e+00
        6  1    1    2  501    0 +9.1259955545e+00 -6.8623701054e+01 -2.0079436940e+01 1.8741579424e+02 1.7300000000e+02 0.0000e+00 1.0000e+00
       -6  1    1    2    0  502 -6.8323685188e+01 +5.3913540539e+01 -3.9427479042e+01 1.9763178367e+02 1.7300000000e+02 0.0000e+00 1.0000e+00
       21  1    1    2  504  503 +2.5672842649e+01 +5.6395617166e+00 -3.1827550357e+01 4.1278232372e+01 0.0000000000e+00 0.0000e+00 1.0000e+00
       21  1    1    2  505  504 +3.3524846985e+01 +9.0705987977e+00 +8.1993232139e+01 8.9045388677e+01 0.0000000000e+00 0.0000e+00 -1.0000e+00
<mgrwt>
<rscale>  4 0.18754332E+03</rscale>
<asrwt>0</asrwt>
<pdfrwt beam="1">  1       21 0.38925382E-01 0.18754332E+03</pdfrwt>
<pdfrwt beam="2">  1       21 0.40362495E-01 0.18754332E+03</pdfrwt>
<totfact> 0.37735265E+04</totfact>
</mgrwt>
</event>
<event>
 6      1 +2.5168323e+02 1.91902700e+02 7.54677100e-03 1.16820100e-01
       21 -1    0    0  501  502 +0.0000000000e+00 +0.0000000000e+00 +2.1575824257e+02 2.1575824257e+02 0.0000000000e+00 0.0000e+00 -1.0000e+00
       21 -1    0    0  504  503 -0.0000000000e+00 -0.0000000000e+00 -1.9427312650e+03 1.9427312650e+03 0.0000000000e+00 0.0000e+00 -1.0000e+00
        6  1    1    2  501    0 -1.1741470515e+02 +2.1064316240e+01 -2.7343435837e+02 3.4485542876e+02 1.7300000000e+02 0.0000e+00 1.0000e+00
       -6  1    1    2    0  503 +1.1705382362e+01 +8.2746055453e+01 -1.2713562155e+03 1.2857914109e+03 1.7300000000e+02 0.0000e+00 -1.0000e+00
       21  1    1    2  504  505 -1.6110514076e+00 +2.2907668987e+01 -3.1460962157e+02 3.1544662111e+02 0.0000000000e+00 0.0000e+00 -1.0000e+00
       21  1    1    2  505  502 +1.0732037420e+02 -1.2671804068e+02 +1.3242717300e+02 2.1239604681e+02 0.0000000000e+00 0.0000e+00 -1.0000e+00
<mgrwt>
<rscale>  4 0.19190266E+03</rscale>
<asrwt>0</asrwt>
<pdfrwt beam="1">  1       21 0.33193576E-01 0.19190266E+03</pdfrwt>
<pdfrwt beam="2">  1       21 0.29888173E+00 0.19190266E+03</pdfrwt>
<totfact> 0.30311493E+02</totfact>
</mgrwt>
</event>
<event>
 6      1 +2.5168323e+02 1.74123600e+02 7.54677100e-03 1.11910500e-01
       21 -1    0    0  501  502 +0.0000000000e+00 +0.0000000000e+00 +4.7591493200e+02 4.7591493200e+02 0.0000000000e+00 0.0000e+00 1.0000e+00
       21 -1    0    0  505  503 -0.0000000000e+00 -0.0000000000e+00 -1.9113509751e+03 1.9113509751e+03 0.0000000000e+00 0.0000e+00 1.0000e+00
        6  1    1    2  501    0 +1.2416168114e-01 +1.3396318672e+01 +3.7783664149e+02 4.1577518496e+02 1.7300000000e+02 0.0000e+00 1.0000e+00
       -6  1    1    2    0  504 -1.3796565948e+02 -1.8851282960e+01 -9.7006052570e+01 2.4234081023e+02 1.7300000000e+02 0.0000e+00 -1.0000e+00
       21  1    1    2  504  503 -1.6354638682e+01 +3.5042190299e+01 -6.7558211216e+02 6.7668797800e+02 0.0000000000e+00 0.0000e+00 1.0000e+00
       21  1    1    2  505  502 +1.5419613648e+02 -2.9587226011e+01 -1.0406845199e+03 1.0524619339e+03 0.0000000000e+00 0.0000e+00 1.0000e+00
<mgrwt>
<rscale>  4 0.17412363E+03</rscale>
<asrwt>0</asrwt>
<pdfrwt beam="1">  1       21 0.73217683E-01 0.17412363E+03</pdfrwt>
<pdfrwt beam="2">  1       21 0.29405399E+00 0.17412363E+03</pdfrwt>
<totfact> 0.64049448E+01</totfact>
</mgrwt>
</event>
<event>
 6      1 +2.5168323e+02 2.86143900e+02 7.54677100e-03 1.12068800e-01
       21 -1    0    0  504  502 +0.0000000000e+00 +0.0000000000e+00 +3.2314633939e+03 3.2314633939e+03 0.0000000000e+00 0.0000e+00 1.0000e+00
       21 -1    0    0  502  503 -0.0000000000e+00 -0.0000000000e+00 -2.4531779653e+02 2.4531779653e+02 0.0000000000e+00 0.0000e+00 1.0000e+00
        6  1    1    2  501    0 +2.6843343028e+02 -2.3950223720e+00 +2.4745911829e+03 2.4951137779e+03 1.7300000000e+02 0.0000e+00 1.0000e+00
       -6  1    1    2    0  505 -1.5249925905e+02 +1.7929048311e+01 +6.8472726512e+02 7.2274331708e+02 1.7300000000e+02 0.0000e+00 1.0000e+00
       21  1    1    2  504  501 -1.4161215106e+02 +2.4148632300e+01 -1.4386928249e+02 2.0331140699e+02 0.0000000000e+00 0.0000e+00 1.0000e+00
       21  1    1    2  505  503 +2.5677979831e+01 -3.9682658239e+01 -2.9303568078e+01 5.5612688437e+01 0.0000000000e+00 0.0000e+00 -1.0000e+00
<mgrwt>
<rscale>  4 0.28614386E+03</rscale>
<asrwt>0</asrwt>
<pdfrwt beam="1">  1       21 0.49714818E+00 0.28614386E+03</pdfrwt>
<pdfrwt beam="2">  1       21 0.37741202E-01 0.28614386E+03</pdfrwt>
<totfact> 0.11440001E+01</totfact>
</mgrwt>
</event>
<event>
 6      1 +2.5168323e+02 2.77970200e+02 7.54677100e-03 1.16820100e-01
       21 -1    0    0  501  502 +0.0000000000e+00 +0.0000000000e+00 +6.4980241227e+02 6.4980241227e+02 0.0000000000e+00 0.0000e+00 1.0000e+00
       21 -1    0    0  504  503 -0.0000000000e+00 -0.0000000000e+00 -2.2055230303e+02 2.2055230303e+02 0.0000000000e+00 0.0000e+00 1.0000e+00
        6  1    1    2  501    0 +2.0157448627e+02 +1.2039577778e+02 +4.6668933659e+01 2.9535471249e+02 1.7300000000e+02 0.0000e+00 1.0000e+00
       -6  1    1    2    0  503 -1.5080355112e+02 -1.4341517514e+02 +1.8628243017e+02 3.2854188056e+02 1.7300000000e+02 0.0000e+00 1.0000e+00
       21  1    1    2  504  505 -1.4481574627e+01 -1.9918462510e+01 -1.4305110695e+01 2.8479770793e+01 0.0000000000e+00 0.0000e+00 -1.0000e+00
       21  1    1    2  505  502 -3.6289360517e+01 +4.2937859874e+01 +2.1060385610e+02 2.1797835145e+02 0.0000000000e+00 0.0000e+00 1.0000e+00
<mgrwt>
<rscale>  4 0.27797021E+03</rscale>
<asrwt>0</asrwt>
<pdfrwt beam="1">  1       21 0.99969601E-01 0.27797021E+03</pdfrwt>
<pdfrwt beam="2">  1       21 0.33931124E-01 0.27797021E+03</pdfrwt>
<totfact> 0.65063903E+03</totfact>
</mgrwt>
</event>
<event>
 6      1 +2.5168323e+02 2.75670100e+02 7.54677100e-03 1.17392200e-01
       21 -1    0    0  504  502 +0.0000000000e+00 +0.0000000000e+00 +1.4101057190e+03 1.4101057190e+03 0.0000000000e+00 0.0000e+00 1.0000e+00
       21 -1    0    0  501  503 -0.0000000000e+00 -0.0000000000e+00 -2.0711703115e+02 2.0711703115e+02 0.0000000000e+00 0.0000e+00 1.0000e+00
        6  1    1    2  501    0 -1.8883946951e+02 -1.0039989558e+02 -2.1690377124e+01 2.7593469651e+02 1.7300000000e+02 0.0000e+00 1.0000e+00
       -6  1    1    2    0  502 -2.4361603260e+01 +4.4842185495e+01 +1.0013788463e+03 1.0174934413e+03 1.7300000000e+02 0.0000e+00 1.0000e+00
       21  1    1    2  504  505 +1.6924188451e+02 +4.5352956089e+01 +2.1592029806e+02 2.7806704445e+02 0.0000000000e+00 0.0000e+00 1.0000e+00
       21  1    1    2  505  503 +4.3959188259e+01 +1.0204753993e+01 +7.3799206329e+00 4.5727567888e+01 0.0000000000e+00 0.0000e+00 -1.0000e+00
<mgrwt>
<rscale>  4 0.24793240E+03</rscale>
<asrwt>0</asrwt>
<pdfrwt beam="1">  1       21 0.21693934E+00 0.27567010E+03</pdfrwt>
<pdfrwt beam="2">  1       21 0.31864160E-01 0.27567010E+03</pdfrwt>
<totfact> 0.91701287E+02</totfact>
</mgrwt>
</event>
<event>
 6      1 +2.5168323e+02 2.90306100e+02 7.54677100e-03 1.16820100e-01
       21 -1    0    0  505  502 +0.0000000000e+00 +0.0000000000e+00 +8.1658753929e+02 8.1658753929e+02 0.0000000000e+00 0.0000e+00 -1.0000e+00
       21 -1    0    0  504  503 -0.0000000000e+00 -0.0000000000e+00 -1.3007800856e+03 1.3007800856e+03 0.0000000000e+00 0.0000e+00 1.0000e+00
        6  1    1    2  501    0 +1.2703377466e+02 +1.9133951064e+02 +2.7439915436e+01 2.8884310135e+02 1.7300000000e+02 0.0000e+00 1.0000e+00
       -6  1    1    2    0  503 -1.3501903411e+02 -2.2492301134e+02 -6.2365133720e+02 6.9834840230e+02 1.7300000000e+02 0.0000e+00 -1.0000e+00
       21  1    1    2  504  502 +2.7520598532e+01 +2.5008531608e+01 -5.0821589496e+02 5.0957453418e+02 0.0000000000e+00 0.0000e+00 1.0000e+00
       21  1    1    2  505  501 -1.9535339077e+01 +8.5749690901e+00 +6.2023477036e+02 6.2060158712e+02 0.0000000000e+00 0.0000e+00 -1.0000e+00
<mgrwt>
<rscale>  4 0.29030609E+03</rscale>
<asrwt>0</asrwt>
<pdfrwt beam="1">  1       21 0.12562885E+00 0.29030609E+03</pdfrwt>
<pdfrwt beam="2">  1       21 0.20012001E+00 0.29030609E+03</pdfrwt>
<totfact> 0.55937089E+01</totfact>
</mgrwt>
</event>
<event>
 6      1 +2.5168323e+02 2.71968600e+02 7.54677100e-03 1.11671100e-01
       21 -1    0    0  503  502 +0.0000000000e+00 +0.0000000000e+00 +4.0525549754e+02 4.0525549754e+02 0.0000000000e+00 0.0000e+00 1.0000e+00
       21 -1    0    0  501  503 -0.0000000000e+00 -0.0000000000e+00 -7.7349831547e+02 7.7349831547e+02 0.0000000000e+00 0.0000e+00 1.0000e+00
        6  1    1    2  501    0 +5.3699656246e+01 +2.0839028993e+02 -6.6377735221e+02 7.1891553003e+02 1.7300000000e+02 0.0000e+00 1.0000e+00
       -6  1    1    2    0  504 -2.2023419839e+01 -1.7223042744e+02 +1.1525653403e+02 2.7085313325e+02 1.7300000000e+02 0.0000e+00 1.0000e+00
       21  1    1    2  504  505 -1.0941177516e+01 -3.2305473477e+01 +8.9236811464e+01 9.5533038800e+01 0.0000000000e+00 0.0000e+00 1.0000e+00
       21  1    1    2  505  502 -2.0735058891e+01 -3.8543890187e+00 +9.1041188776e+01 9.3452110921e+01 0.0000000000e+00 0.0000e+00 1.0000e+00
<mgrwt>
<rscale>  4 0.27196857E+03</rscale>
<asrwt>0</asrwt>
<pdfrwt beam="1">  1       21 0.62347000E-01 0.27196857E+03</pdfrwt>
<pdfrwt beam="2">  1       21 0.11899974E+00 0.27196857E+03</pdfrwt>
<totfact> 0.12029810E+03</totfact>
</mgrwt>
</event>
<event>
 6      1 +2.5168323e+02 1.84005500e+02 7.54677100e-03 1.16584500e-01
       21 -1    0    0  504  502 +0.0000000000e+00 +0.0000000000e+00 +1.8922895810e+03 1.8922895810e+03 0.0000000000e+00 0.0000e+00 -1.0000e+00
       21 -1    0    0  501  503 -0.0000000000e+00 -0.0000000000e+00 -4.2906879704e+02 4.2906879704e+02 0.0000000000e+00 0.0000e+00 -1.0000e+00
        6  1    1    2  501    0 +3.5446508551e+01 +5.7156415276e+01 +1.2579385370e+02 2.2422400497e+02 1.7300000000e+02 0.0000e+00 1.0000e+00
       -6  1    1    2    0  505 +1.8120153633e+01 +6.5952744980e+01 -2.1807734765e+02 2.8664408959e+02 1.7300000000e+02 0.0000e+00 -1.0000e+00
       21  1    1    2  504  503 -1.0011125944e+02 -1.2727720057e+02 -7.5605031980e+01 1.7871169775e+02 0.0000000000e+00 0.0000e+00 -1.0000e+00
       21  1    1    2  505  502 +4.6544597261e+01 +4.1680403127e+00 +1.6311093099e+03 1.6317785858e+03 0.0000000000e+00 0.0000e+00 -1.0000e+00
<mgrwt>
<rscale>  4 0.18400546E+03</rscale>
<asrwt>0</asrwt>
<pdfrwt beam="1">  1       21 0.29112147E+00 0.18400546E+03</pdfrwt>
<pdfrwt beam="2">  1       21 0.66010585E-01 0.18400546E+03</pdfrwt>
<totfact> 0.82125771E+01</totfact>
</mgrwt>
</event>
<event>
 6      1 +2.5168323e+02 1.80025100e+02 7.54677100e-03 1.16820100e-01
       21 -1    0    0  505  502 +0.0000000000e+00 +0.0000000000e+00 +2.6050775312e+02 2.6050775312e+02 0.0000000000e+00 0.0000e+00 -1.0000e+00
       21 -1    0    0  501  503 -0.0000000000e+00 -0.0000000000e+00 -1.7991105850e+03 1.7991105850e+03 0.0000000000e+00 0.0000e+00 -1.0000e+00
        6  1    1    2  501    0 +6.3997746819e+01 -2.1974123960e+01 -1.9664909816e+02 2.7051514104e+02 1.7300000000e+02 0.0000e+00 -1.0000e+00
       -6  1    1    2    0  502 -3.9875445551e+01 +5.2258348095e+01 +7.3962914447e+01 1.9930002212e+02 1.7300000000e+02 0.0000e+00 -1.0000e+00
       21  1    1    2  504  503 -4.9696932885e+01 -1.9489170487e+01 -1.5001572123e+03 1.5011066833e+03 0.0000000000e+00 0.0000e+00 -1.0000e+00
       21  1    1    2  505  504 +2.5574631617e+01 -1.0795053648e+01 +8.4240564224e+01 8.8696491623e+01 0.0000000000e+00 0.0000e+00 -1.0000e+00
<mgrwt>
<rscale>  4 0.18002514E+03</rscale>
<asrwt>0</asrwt>
<pdfrwt beam="1">  1       21 0.40078114E-01 0.18002514E+03</pdfrwt>
<pdfrwt beam="2">  1       21 0.27678626E+00 0.18002514E+03</pdfrwt>
<totfact> 0.28403296E+02</totfact>
</mgrwt>
</event>
<event>
 6      1 +2.5168323e+02 1.77604400e+02 7.54677100e-03 1.16820100e-01
       21 -1    0    0  501  502 +0.0000000000e+00 +0.0000000000e+00 +8.1924331971e+02 8.1924331971e+02 0.0000000000e+00 0.0000e+00 1.0000e+00
       21 -1    0    0  504  503 -0.0000000000e+00 -0.0000000000e+00 -2.5897710986e+02 2.5897710986e+02 0.0000000000e+00 0.0000e+00 1.0000e+00
        6  1    1    2  501    0 +8.5600755240e+01 +4.6104994507e+01 +1.9484824195e+02 2.7811507907e+02 1.7300000000e+02 0.0000e+00 -1.0000e+00
       -6  1    1    2    0  503 +5.9712547084e+01 +4.9113425632e+00 -1.1609831413e+02 2.1678913282e+02 1.7300000000e+02 0.0000e+00 1.0000e+00
       21  1    1    2  504  505 +6.5701706386e+00 -2.0875530420e+01 -3.6551558825e+01 4.2602480738e+01 0.0000000000e+00 0.0000e+00 -1.0000e+00
       21  1    1    2  505  502 -1.5188347296e+02 -3.0140806651e+01 +5.1806784086e+02 5.4071373694e+02 0.0000000000e+00 0.0000e+00 1.0000e+00
<mgrwt>
<rscale>  4 0.17760441E+03</rscale>
<asrwt>0</asrwt>
<pdfrwt beam="1">  1       21 0.12603743E+00 0.17760441E+03</pdfrwt>
<pdfrwt beam="2">  1       21 0.39842633E-01 0.17760441E+03</pdfrwt>
<totfact> 0.28760938E+03</totfact>
</mgrwt>
</event>
<event>
 6      1 +2.5168323e+02 1.73251600e+02 7.54677100e-03 1.15942100e-01
       21 -1    0    0  504  502 +0.0000000000e+00 +0.0000000000e+00 +1.5605773362e+02 1.5605773362e+02 0.0000000000e+00 0.0000e+00 1.0000e+00
       21 -1    0    0  501  503 -0.0000000000e+00 -0.0000000000e+00 -3.3309340437e+02 3.3309340437e+02 0.0000000000e+00 0.0000e+00 1.0000e+00
        6  1    1    2  501    0 -9.3136049179e-02 +2.1564246024e+01 +3.5697057503e+01 1.7795590829e+02 1.7300000000e+02 0.0000e+00 -1.0000e+00
       -6  1    1    2    0  502 +1.5438974836e+00 +2.0459622707e+01 -1.2914217939e+02 2.1685866890e+02 1.7300000000e+02 0.0000e+00 -1.0000e+00
       21  1    1    2  504  505 +1.3800577017e+00 -2.1096471387e+01 -5.3932140043e+01 5.7927898235e+01 0.0000000000e+00 0.0000e+00 1.0000e+00
       21  1    1    2  505  503 -2.8308191361e+00 -2.0927397344e+01 -2.9658408816e+01 3.6408662569e+01 0.0000000000e+00 0.0000e+00 1.0000e+00
<mgrwt>
<rscale>  4 0.17325164E+03</rscale>
<asrwt>0</asrwt>
<pdfrwt beam="1">  1       21 0.24008882E-01 0.17325164E+03</pdfrwt>
<pdfrwt beam="2">  1       21 0.51245138E-01 0.17325164E+03</pdfrwt>
<totfact> 0.59741527E+04</totfact>
</mgrwt>
</event>
<event>
 6      1 +2.5168323e+02 1.91318000e+02 7.54677100e-03 1.07064900e-01
       21 -1    0    0  504  502 +0.0000000000e+00 +0.0000000000e+00 +1.7048694858e+02 1.7048694858e+02 0.0000000000e+00 0.0000e+00 1.0000e+00
       21 -1    0    0  501  503 -0.0000000000e+00 -0.0000000000e+00 -5.1555523964e+02 5.1555523964e+02 0.0000000000e+00 0.0000e+00 1.0000e+00
        6  1    1    2  501    0 +6.5021285419e+01 +9.7905394346e+01 -1.3010505160e+02 2.4631191253e+02 1.7300000000e+02 0.0000e+00 1.0000e+00
       -6  1    1    2    0  505 -7.0187553256e+01 -1.6464563063e+01 -2.5450725389e+02 3.1607011366e+02 1.7300000000e+02 0.0000e+00 1.0000e+00
       21  1    1    2  504  503 -2.6209767229e+01 -1.2452574003e+01 -1.2632535892e+01 3.1648056189e+01 0.0000000000e+00 0.0000e+00 1.0000e+00
       21  1    1    2  505  502 +3.1376035066e+01 -6.8988257279e+01 +5.2176550324e+01 9.2012105848e+01 0.0000000000e+00 0.0000e+00 1.0000e+00
<mgrwt>
<rscale>  4 0.19131802E+03</rscale>
<asrwt>0</asrwt>
<pdfrwt beam="1">  1       21 0.26228762E-01 0.19131802E+03</pdfrwt>
<pdfrwt beam="2">  1       21 0.79316189E-01 0.19131802E+03</pdfrwt>
<totfact> 0.19392754E+04</totfact>
</mgrwt>
</event>
<event>
 6      1 +2.5168323e+02 1.82192500e+02 7.54677100e-03 1.12989000e-01
       21 -1    0    0  501  502 +0.0000000000e+00 +0.0000000000e+00 +3.8455027264e+01 3.8455027264e+01 0.0000000000e+00 0.0000e+00 -1.0000e+00
       21 -1    0    0  502  503 -0.0000000000e+00 -0.0000000000e+00 -2.9651207093e+03 2.9651207093e+03 0.0000000000e+00 0.0000e+00 1.0000e+00
        6  1    1    2  501    0 +4.4541859950e+01 +1.7533161863e+01 -4.3239931406e+02 4.6817684250e+02 1.7300000000e+02 0.0000e+00 -1.0000e+00
       -6  1    1    2    0  505 +1.5216766190e+01 -9.7338556639e+01 -4.9939804882e+02 5.3761859691e+02 1.7300000000e+02 0.0000e+00 1.0000e+00
       21  1    1    2  504  503 -3.0061417346e+01 +7.0577447186e+01 -1.4039824054e+03 1.4060766194e+03 0.0000000000e+00 0.0000e+00 1.0000e+00
       21  1    1    2  505  504 -2.9697208794e+01 +9.2279475895e+00 -5.9088591376e+02 5.9170367779e+02 0.0000000000e+00 0.0000e+00 1.0000e+00
<mgrwt>
<rscale>  4 0.18219253E+03</rscale>
<asrwt>0</asrwt>
<pdfrwt beam="1">  1       21 0.59161553E-02 0.18219253E+03</pdfrwt>
<pdfrwt beam="2">  1       21 0.45617263E+00 0.18219253E+03</pdfrwt>
<totfact> 0.77830338E+02</totfact>
</mgrwt>
</event>
<event>
 6      1 +2.5168323e+02 1.76714900e+02 7.54677100e-03 1.12989000e-01
       21 -1    0    0  501  502 +0.0000000000e+00 +0.0000000000e+00 +1.6534079477e+03 1.6534079477e+03 0.0000000000e+00 0.0000e+00 -1.0000e+00
       21 -1    0    0  502  503 -0.0000000000e+00 -0.0000000000e+00 -3.0256304444e+02 3.0256304444e+02 0.0000000000e+00 0.0000e+00 -1.0000e+00
        6  1    1    2  501    0 -1.9981603686e+01 -4.4185663830e+01 +1.0061497215e+03 1.0220655065e+03 1.7300000000e+02 0.0000e+00 -1.0000e+00
       -6  1    1    2    0  504 +5.8051716498e+01 -4.3074582759e+01 +6.1640912678e+02 6.4429390269e+02 1.7300000000e+02 0.0000e+00 1.0000e+00
       21  1    1    2  504  505 -2.6555962458e+01 +2.9747004671e+01 -1.3693137852e+02 1.4261944415e+02 0.0000000000e+00 0.0000e+00 -1.0000e+00
       21  1    1    2  505  503 -1.1514150354e+01 +5.7513241919e+01 -1.3478256650e+02 1.4699213886e+02 0.0000000000e+00 0.0000e+00 -1.0000e+00
<mgrwt>
<rscale>  4 0.17671492E+03</rscale>
<asrwt>0</asrwt>
<pdfrwt beam="1">  1       21 0.25437045E+00 0.17671492E+03</pdfrwt>
<pdfrwt beam="2">  1       21 0.46548162E-01 0.17671492E+03</pdfrwt>
<totfact> 0.28362157E+02</totfact>
</mgrwt>
</event>
<event>
 6      1 +2.5168323e+02 2.05117800e+02 7.54677100e-03 1.11910500e-01
       21 -1    0    0  501  502 +0.0000000000e+00 +0.0000000000e+00 +3.6587249216e+02 3.6587249216e+02 0.0000000000e+00 0.0000e+00 -1.0000e+00
       21 -1    0    0  505  503 -0.0000000000e+00 -0.0000000000e+00 -4.4436534598e+02 4.4436534598e+02 0.0000000000e+00 0.0000e+00 -1.0000e+00
        6  1    1    2  501    0 -2.0696627073e+01 +4.1816764103e+01 -6.9998248993e+01 1.9236877864e+02 1.7300000000e+02 0.0000e+00 1.0000e+00
       -6  1    1    2    0  504 -2.9378233519e+01 -1.2991011924e+02 +2.4732884443e+02 3.2990949815e+02 1.7300000000e+02 0.0000e+00 -1.0000e+00
       21  1    1    2  504  503 +1.2548934571e+01 -1.6516643392e+01 -4.7879911787e+01 5.2180084520e+01 0.0000000000e+00 0.0000e+00 -1.0000e+00
       21  1    1    2  505  502 +3.7525926021e+01 +1.0460999853e+02 -2.0794353747e+02 2.3577947683e+02 0.0000000000e+00 0.0000e+00 -1.0000e+00
<mgrwt>
<rscale>  4 0.20511784E+03</rscale>
<asrwt>0</asrwt>
<pdfrwt beam="1">  1       21 0.56288076E-01 0.20511784E+03</pdfrwt>
<pdfrwt beam="2">  1       21 0.68363899E-01 0.20511784E+03</pdfrwt>
<totfact> 0.57422919E+03</totfact>
</mgrwt>
</event>
<event>
 6      1 +2.5168323e+02 2.80883100e+02 7.54677100e-03 1.15832300e-01
       21 -1    0    0  501  502 +0.0000000000e+00 +0.0000000000e+00 +3.6552151491e+02 3.6552151491e+02 0.0000000000e+00 0.0000e+00 1.0000e+00
       21 -1    0    0  505  503 -0.0000000000e+00 -0.0000000000e+00 -1.2156730296e+03 1.2156730296e+03 0.0000000000e+00 0.0000e+00 -1.0000e+00
        6  1    1    2  501    0 -1.3013445869e+02 +7.1257927574e+01 +8.8235274835e+01 2.4439135276e+02 1.7300000000e+02 0.0000e+00 1.0000e+00
       -6  1    1    2    0  504 -1.1378566498e+02 -2.9487925999e+02 -1.0455316688e+02 3.7518171628e+02 1.7300000000e+02 0.0000e+00 1.0000e+00
       21  1    1    2  504  503 +1.7027607884e+02 +2.6046953922e+01 -1.0238312745e+02 2.0038635587e+02 0.0000000000e+00 0.0000e+00 1.0000e+00
       21  1    1    2  505  502 +7.3644044827e+01 +1.9757437849e+02 -7.3145049520e+02 7.6123511959e+02 0.0000000000e+00 0.0000e+00 -1.0000e+00
<mgrwt>
<rscale>  4 0.25703689E+03</rscale>
<asrwt>0</asrwt>
<pdfrwt beam="1">  1       21 0.56234078E-01 0.28088310E+03</pdfrwt>
<pdfrwt beam="2">  1       21 0.18702662E+00 0.28088310E+03</pdfrwt>
<totfact> 0.44450963E+02</totfact>
</mgrwt>
</event>
<event>
 6      1 +2.5168323e+02 1.92334100e+02 7.54677100e-03 1.11910500e-01
       21 -1    0    0  501  502 +0.0000000000e+00 +0.0000000000e+00 +1.8676998541e+03 1.8676998541e+03 0.0000000000e+00 0.0000e+00 1.0000e+00
       21 -1    0    0  505  503 -0.0000000000e+00 -0.0000000000e+00 -3.9390199817e+02 3.9390199817e+02 0.0000000000e+00 0.0000e+00 1.0000e+00
        6  1    1    2  501    0 +8.4405927059e+01 -3.2500499495e+01 +1.6685978896e+03 1.6799787380e+03 1.7300000000e+02 0.0000e+00 1.0000e+00
       -6  1    1    2    0  504 -1.3392291699e+01 +4.6620892552e+01 +1.2078761264e+02 2.1649828744e+02 1.7300000000e+02 0.0000e+00 -1.0000e+00
       21  1    1    2  504  503 +3.2581106388e+01 -2.0357525729e+01 -6.3534887693e+00 3.8940007278e+01 0.0000000000e+00 0.0000e+00 1.0000e+00
       21  1    1    2  505  502 -1.0359474175e+02 +6.2371326721e+00 -3.0923415751e+02 3.2618481956e+02 0.0000000000e+00 0.0000e+00 1.0000e+00
<mgrwt>
<rscale>  4 0.19233410E+03</rscale>
<asrwt>0</asrwt>
<pdfrwt beam="1">  1       21 0.28733843E+00 0.19233410E+03</pdfrwt>
<pdfrwt beam="2">  1       21 0.60600308E-01 0.19233410E+03</pdfrwt>
<totfact> 0.10245176E+02</totfact>
</mgrwt>
</event>
<event>
 6      1 +2.5168323e+02 1.98338500e+02 7.54677100e-03 1.15942100e-01
       21 -1    0    0  504  502 +0.0000000000e+00 +0.0000000000e+00 +5.8369623195e+02 5.8369623195e+02 0.0000000000e+00 0.0000e+00 -1.0000e+00
       21 -1    0    0  501  503 -0.0000000000e+00 -0.0000000000e+00 -2.1549902611e+02 2.1549902611e+02 0.0000000000e+00 0.0000e+00 1.0000e+00
        6  1    1    2  501    0 +4.7649623886e+01 +1.1245069978e+02 -8.3676117021e+01 2.2769791193e+02 1.7300000000e+02 0.0000e+00 1.0000e+00
       -6  1    1    2    0  502 -8.0787018742e+01 -5.2066499623e+01 +4.5998093767e+02 5.0074836575e+02 1.7300000000e+02 0.0000e+00 -1.0000e+00
       21  1    1    2  504  505 +1.1060686241e+01 -2.6582787469e+01 +2.8036825299e+00 2.8928256178e+01 0.0000000000e+00 0.0000e+00 1.0000e+00
       21  1    1    2  505  503 +2.2076708616e+01 -3.3801412690e+01 -1.0911297333e+01 4.1820724201e+01 0.0000000000e+00 0.0000e+00 1.0000e+00
<mgrwt>
<rscale>  4 0.19833850E+03</rscale>
<asrwt>0</asrwt>
<pdfrwt beam="1">  1       21 0.89799420E-01 0.19833850E+03</pdfrwt>
<pdfrwt beam="2">  1       21 0.33153696E-01 0.19833850E+03</pdfrwt>
<totfact> 0.92134498E+03</totfact>
</mgrwt>
</event>
<event>
 6      1 +2.5168323e+02 1.97132100e+02 7.54677100e-03 1.11471900e-01
       21 -1    0    0  503  502 +0.0000000000e+00 +0.0000000000e+00 +7.1962634474e+02 7.1962634474e+02 0.0000000000e+00 0.0000e+00 1.0000e+00
       21 -1    0    0  501  503 -0.0000000000e+00 -0.0000000000e+00 -6.6552530591e+02 6.6552530591e+02 0.0000000000e+00 0.0000e+00 1.0000e+00
        6  1    1    2  501    0 -3.8221049824e+01 +4.1980533178e+01 -1.7250041550e+02 2.5081588299e+02 1.7300000000e+02 0.0000e+00 1.0000e+00
       -6  1    1    2    0  504 +1.4358143747e+02 -3.6071600972e+00 -3.3845087425e+02 4.0633315773e+02 1.7300000000e+02 0.0000e+00 1.0000e+00
       21  1    1    2  504  505 -2.8307695322e+01 -2.2567373939e+01 -7.4923357330e+01 8.3211306050e+01 0.0000000000e+00 0.0000e+00 1.0000e+00
       21  1    1    2  505  502 -7.7052692322e+01 -1.5805999142e+01 +6.3997568590e+02 6.4479130387e+02 0.0000000000e+00 0.0000e+00 1.0000e+00
<mgrwt>
<rscale>  4 0.19713211E+03</rscale>
<asrwt>0</asrwt>
<pdfrwt beam="1">  1       21 0.11071175E+00 0.19713211E+03</pdfrwt>
<pdfrwt beam="2">  1       21 0.10238851E+00 0.19713211E+03</pdfrwt>
<totfact> 0.49651273E+02</totfact>
</mgrwt>
</event>
<event>
 6      1 +2.5168323e+02 4.30506600e+02 7.54677100e-03 1.09842800e-01
       21 -1    0    0  504  502 +0.0000000000e+00 +0.0000000000e+00 +1.9965349883e+03 1.9965349883e+03 0.0000000000e+00 0.0000e+00 1.0000e+00
       21 -1    0    0  505  503 -0.0000000000e+00 -0.0000000000e+00 -3.9579071489e+02 3.9579071489e+02 0.0000000000e+00 0.0000e+00 -1.0000e+00
        6  1    1    2  501    0 -3.0333558684e+02 -7.0011629468e+01 +1.3358855812e+03 1.3825459821e+03 1.7300000000e+02 0.0000e+00 1.0000e+00
       -6  1    1    2    0  503 +3.4878967824e+02 +2.0333279414e+02 -2.2298099673e+02 4.9259312797e+02 1.7300000000e+02 0.0000e+00 -1.0000e+00
       21  1    1    2  504  501 -5.4927696870e+00 -1.3030255773e+02 +3.9774507920e+02 4.1858102572e+02 0.0000000000e+00 0.0000e+00 1.0000e+00
       21  1    1    2  505  502 -3.9961321716e+01 -3.0186069424e+00 +9.0094609818e+01 9.8605567487e+01 0.0000000000e+00 0.0000e+00 -1.0000e+00
<mgrwt>
<rscale>  4 0.43050663E+03</rscale>
<asrwt>0</asrwt>
<pdfrwt beam="1">  1       21 0.30715922E+00 0.43050663E+03</pdfrwt>
<pdfrwt beam="2">  1       21 0.60890880E-01 0.43050663E+03</pdfrwt>
<totfact> 0.60279674E+01</totfact>
</mgrwt>
</event>
<event>
 6      1 +2.5168323e+02 2.87870100e+02 7.54677100e-03 1.04003000e-01
       21 -1    0    0  504  502 +0.0000000000e+00 +0.0000000000e+00 +2.0640428149e+02 2.0640428149e+02 0.0000000000e+00 0.0000e+00 -1.0000e+00
       21 -1    0    0  502  503 -0.0000000000e+00 -0.0000000000e+00 -6.7338568012e+02 6.7338568012e+02 0.0000000000e+00 0.0000e+00 1.0000e+00
        6  1    1    2  501    0 +8.1957732198e+01 +1.9925940799e+02 -8.8940891265e+01 2.9027721867e+02 1.7300000000e+02 0.0000e+00 -1.0000e+00
       -6  1    1    2    0  505 -1.5305726723e+02 -2.0130263332e+02 -1.3976673603e+02 3.3676849279e+02 1.7300000000e+02 0.0000e+00 1.0000e+00
       21  1    1    2  504  501 +2.9611084827e+01 -7.5910216058e+00 -1.6651054552e+02 1.6929324181e+02 0.0000000000e+00 0.0000e+00 1.0000e+00
       21  1    1    2  505  503 +4.1488450207e+01 +9.6342469373e+00 -7.1763225815e+01 8.3451008346e+01 0.0000000000e+00 0.0000e+00 1.0000e+00
<mgrwt>
<rscale>  4 0.28787013E+03</rscale>
<asrwt>0</asrwt>
<pdfrwt beam="1">  1       21 0.31754505E-01 0.28787013E+03</pdfrwt>
<pdfrwt beam="2">  1       21 0.10359780E+00 0.28787013E+03</pdfrwt>
<totfact> 0.67753953E+03</totfact>
</mgrwt>
</event>
<event>
 6      1 +2.5168323e+02 2.09039600e+02 7.54677100e-03 1.09842800e-01
       21 -1    0    0  505  502 +0.0000000000e+00 +0.0000000000e+00 +6.2980096242e+02 6.2980096242e+02 0.0000000000e+00 0.0000e+00 1.0000e+00
       21 -1    0    0  502  503 -0.0000000000e+00 -0.0000000000e+00 -3.7312739218e+02 3.7312739218e+02 0.0000000000e+00 0.0000e+00 -1.0000e+00
        6  1    1    2  501    0 +1.2540210578e+02 +5.7698501847e+01 -1.4631191609e+02 2.6531298883e+02 1.7300000000e+02 0.0000e+00 -1.0000e+00
       -6  1    1    2    0  503 -1.0400139684e+02 +1.1227763603e+02 -5.3929628068e+01 2.3719182718e+02 1.7300000000e+02 0.0000e+00 -1.0000e+00
       21  1    1    2  504  501 +4.4157303439e+00 -6.8739682718e+01 +6.4595845303e+01 9.4431275990e+01 0.0000000000e+00 0.0000e+00 1.0000e+00
       21  1    1    2  505  504 -2.5816439284e+01 -1.0123645516e+02 +3.9231926910e+02 4.0599226260e+02 0.0000000000e+00 0.0000e+00 1.0000e+00
<mgrwt>
<rscale>  4 0.20903962E+03</rscale>
<asrwt>0</asrwt>
<pdfrwt beam="1">  1       21 0.96892456E-01 0.20903962E+03</pdfrwt>
<pdfrwt beam="2">  1       21 0.57404214E-01 0.20903962E+03</pdfrwt>
<totfact> 0.24837423E+03</totfact>
</mgrwt>
</event>
<event>
 6      1 +2.5168323e+02 5.49430000e+02 7.54677100e-03 9.82877400e-02
       21 -1    0    0  501  502 +0.0000000000e+00 +0.0000000000e+00 +2.0064518705e+03 2.0064518705e+03 0.0000000000e+00 0.0000e+00 -1.0000e+00
       21 -1    0    0  505  503 -0.0000000000e+00 -0.0000000000e+00 -1.5748660747e+02 1.5748660747e+02 0.0000000000e+00 0.0000e+00 -1.0000e+00
        6  1    1    2  501    0 -2.5482654851e+02 -1.5478652323e+02 +3.6442111892e+02 5.0162455036e+02 1.7300000000e+02 0.0000e+00 -1.0000e+00
       -6  1    1    2    0  504 -9.0691807138e+01 +3.1617443786e+00 +3.4730259801e+02 3.9847596551e+02 1.7300000000e+02 0.0000e+00 -1.0000e+00
       21  1    1    2  504  503 +3.8951624180e+02 -2.5437134443e+00 +7.6222371811e+02 8.5598736530e+02 0.0000000000e+00 0.0000e+00 -1.0000e+00
       21  1    1    2  505  502 -4.3997886153e+01 +1.5416849230e+02 +3.7501782803e+02 4.0785059684e+02 0.0000000000e+00 0.0000e+00 -1.0000e+00
<mgrwt>
<rscale>  4 0.54942999E+03</rscale>
<asrwt>0</asrwt>
<pdfrwt beam="1">  1       21 0.30868488E+00 0.54942999E+03</pdfrwt>
<pdfrwt beam="2">  1       21 0.24228710E-01 0.54942999E+03</pdfrwt>
<totfact> 0.36722362E+02</totfact>
</mgrwt>
</event>
<event>
 6      1 +2.5168323e+02 2.07153400e+02 7.54677100e-03 1.06249800e-01
       21 -1    0    0  501  502 +0.0000000000e+00 +0.0000000000e+00 +5.4894804745e+01 5.4894804745e+01 0.0000000000e+00 0.0000e+00 -1.0000e+00
       21 -1    0    0  502  503 -0.0000000000e+00 -0.0000000000e+00 -1.4433941141e+03 1.4433941141e+03 0.0000000000e+00 0.0000e+00 -1.0000e+00
        6  1    1    2  501    0 -6.8987147008e+01 -3.0032623779e+01 -3.2609760995e+02 3.7673576437e+02 1.7300000000e+02 0.0000e+00 -1.0000e+00
       -6  1    1    2    0  504 +1.3575928253e+02 -1.8003241986e+01 -9.7685928762e+02 1.0014678064e+03 1.7300000000e+02 0.0000e+00 -1.0000e+00
       21  1    1    2  504  505 -2.5965312344e+01 +1.9851943828e+01 -2.1652971774e+01 3.9206482953e+01 0.0000000000e+00 0.0000e+00 -1.0000e+00
       21  1    1    2  505  503 -4.0806823176e+01 +2.8183921936e+01 -6.3889440037e+01 8.0878865111e+01 0.0000000000e+00 0.0000e+00 -1.0000e+00
<mgrwt>
<rscale>  4 0.20715343E+03</rscale>
<asrwt>0</asrwt>
<pdfrwt beam="1">  1       21 0.84453558E-02 0.20715343E+03</pdfrwt>
<pdfrwt beam="2">  1       21 0.22206060E+00 0.20715343E+03</pdfrwt>
<totfact> 0.10535831E+04</totfact>
</mgrwt>
</event>
<event>
 6      1 +2.5168323e+02 1.75138900e+02 7.54677100e-03 1.06249800e-01
       21 -1    0    0  504  502 +0.0000000000e+00 +0.0000000000e+00 +7.2625561856e+02 7.2625561856e+02 0.0000000000e+00 0.0000e+00 -1.0000e+00
       21 -1    0    0  501  503 -0.0000000000e+00 -0.0000000000e+00 -3.3444383969e+02 3.3444383969e+02 0.0000000000e+00 0.0000e+00 -1.0000e+00
        6  1    1    2  501    0 -1.7877925679e+01 +2.0117439947e+01 -2.6237882212e+02 3.1542983041e+02 1.7300000000e+02 0.0000e+00 -1.0000e+00
       -6  1    1    2    0  505 +7.5961861934e+01 +4.1875591406e+01 +2.3584667718e+02 3.0508429124e+02 1.7300000000e+02 0.0000e+00 -1.0000e+00
       21  1    1    2  504  503 -2.9606776694e+01 -9.0056856977e+01 +2.5594079419e+02 2.7293312156e+02 0.0000000000e+00 0.0000e+00 -1.0000e+00
       21  1    1    2  505  502 -2.8477159561e+01 +2.8063825624e+01 +1.6240312963e+02 1.6725221505e+02 0.0000000000e+00 0.0000e+00 -1.0000e+00
<mgrwt>
<rscale>  4 0.17513885E+03</rscale>
<asrwt>0</asrwt>
<pdfrwt beam="1">  1       21 0.11173163E+00 0.17513885E+03</pdfrwt>
<pdfrwt beam="2">  1       21 0.51452899E-01 0.17513885E+03</pdfrwt>
<totfact> 0.22941828E+03</totfact>
</mgrwt>
</event>
<event>
 6      1 +2.5168323e+02 2.81084900e+02 7.54677100e-03 9.87464100e-02
       21 -1    0    0  503  502 +0.0000000000e+00 +0.0000000000e+00 +2.0180420096e+02 2.0180420096e+02 0.0000000000e+00 0.0000e+00 -1.0000e+00
       21 -1    0    0  505  503 -0.0000000000e+00 -0.0000000000e+00 -1.7155310477e+03 1.7155310477e+03 0.0000000000e+00 0.0000e+00 -1.0000e+00
        6  1    1    2  501    0 +6.8684124330e+01 -3.9909432446e+00 +8.2358211327e+00 1.8636057875e+02 1.7300000000e+02 0.0000e+00 -1.0000e+00
       -6  1    1    2    0  504 -1.8864937467e+02 -1.7345740455e+02 -1.7436655373e+02 3.5497711591e+02 1.7300000000e+02 0.0000e+00 -1.0000e+00
       21  1    1    2  504  502 +1.0932921132e+02 +1.9756714444e+02 -9.0243454853e+02 9.3025467878e+02 0.0000000000e+00 0.0000e+00 -1.0000e+00
       21  1    1    2  505  501 +1.0636039024e+01 -2.0118796639e+01 -4.4516156564e+02 4.4574287524e+02 0.0000000000e+00 0.0000e+00 -1.0000e+00
<mgrwt>
<rscale>  4 0.25368356E+03</rscale>
<asrwt>0</asrwt>
<pdfrwt beam="1">  1       21 0.31046800E-01 0.28108492E+03</pdfrwt>
<pdfrwt beam="2">  1       21 0.26392786E+00 0.28108492E+03</pdfrwt>
<totfact> 0.49773456E+02</totfact>
</mgrwt>
</event>
<event>
 6      1 +2.5168323e+02 1.88385600e+02 7.54677100e-03 1.16820100e-01
       21 -1    0    0  505  502 +0.0000000000e+00 +0.0000000000e+00 +4.7818129830e+02 4.7818129830e+02 0.0000000000e+00 0.0000e+00 1.0000e+00
       21 -1    0    0  501  503 -0.0000000000e+00 -0.0000000000e+00 -1.7753814241e+02 1.7753814241e+02 0.0000000000e+00 0.0000e+00 1.0000e+00
        6  1    1    2  501    0 -3.2619172486e+01 +6.9829368683e+01 +1.1086042890e+02 2.1945201262e+02 1.7300000000e+02 0.0000e+00 -1.0000e+00
       -6  1    1    2    0  502 +6.2921401065e+01 -4.1838757530e+01 +1.7407693494e+02 2.5679050532e+02 1.7300000000e+02 0.0000e+00 -1.0000e+00
       21  1    1    2  504  503 -5.4408460839e+01 -3.7459448113e+01 -6.6232637586e+01 9.3542787778e+01 0.0000000000e+00 0.0000e+00 1.0000e+00
       21  1    1    2  505  504 +2.4106232259e+01 +9.4688369606e+00 +8.1938429633e+01 8.5934134998e+01 0.0000000000e+00 0.0000e+00 1.0000e+00
<mgrwt>
<rscale>  4 0.18838561E+03</rscale>
<asrwt>0</asrwt>
<pdfrwt beam="1">  1       21 0.73566353E-01 0.18838561E+03</pdfrwt>
<pdfrwt beam="2">  1       21 0.27313561E-01 0.18838561E+03</pdfrwt>
<totfact> 0.21268833E+04</totfact>
</mgrwt>
</event>
<event>
 6      1 +2.5168323e+02 4.09745700e+02 7.54677100e-03 1.15832300e-01
       21 -1    0    0  501  502 +0.0000000000e+00 +0.0000000000e+00 +5.9211408023e+02 5.9211408023e+02 0.0000000000e+00 0.0000e+00 1.0000e+00
       21 -1    0    0  502  503 -0.0000000000e+00 -0.0000000000e+00 -1.1463920314e+03 1.1463920314e+03 0.0000000000e+00 0.0000e+00 1.0000e+00
        6  1    1    2  501    0 +6.5500706541e+01 +2.5404965109e+01 +6.1960747107e+01 1.9673303991e+02 1.7300000000e+02 0.0000e+00 -1.0000e+00
       -6  1    1    2    0  504 -5.9494738492e+01 +3.7957272999e+02 -8.4450591054e+02 9.4378721871e+02 1.7300000000e+02 0.0000e+00 1.0000e+00
       21  1    1    2  504  505 +3.0065362068e+01 -3.8121181885e+02 +3.1868358096e+02 4.9778067621e+02 0.0000000000e+00 0.0000e+00 1.0000e+00
       21  1    1    2  505  503 -3.6071330118e+01 -2.3765876242e+01 -9.0416368751e+01 1.0020517685e+02 0.0000000000e+00 0.0000e+00 -1.0000e+00
<mgrwt>
<rscale>  4 0.33620230E+03</rscale>
<asrwt>0</asrwt>
<pdfrwt beam="1">  1       21 0.91094476E-01 0.40974568E+03</pdfrwt>
<pdfrwt beam="2">  1       21 0.17636800E+00 0.40974568E+03</pdfrwt>
<totfact> 0.16278243E+02</totfact>
</mgrwt>
</event>
<event>
 6      1 +2.5168323e+02 1.95626800e+02 7.54677100e-03 1.15942100e-01
       21 -1    0    0  504  502 +0.0000000000e+00 +0.0000000000e+00 +1.8167161673e+03 1.8167161673e+03 0.0000000000e+00 0.0000e+00 1.0000e+00
       21 -1    0    0  501  503 -0.0000000000e+00 -0.0000000000e+00 -5.0086425444e+01 5.0086425444e+01 0.0000000000e+00 0.0000e+00 1.0000e+00
        6  1    1    2  501    0 +9.3588541191e+01 +2.0060854353e+01 +1.1937017309e+03 1.2099644934e+03 1.7300000000e+02 0.0000e+00 -1.0000e+00
       -6  1    1    2    0  502 -5.5262018626e+01 -8.6314397905e+01 +4.9621407505e+02 5.3540776448e+02 1.7300000000e+02 0.0000e+00 -1.0000e+00
       21  1    1    2  504  505 -6.9410769235e+00 +3.6532834422e+01 +6.7752331175e+01 7.7286511885e+01 0.0000000000e+00 0.0000e+00 1.0000e+00
       21  1    1    2  505  503 -3.1385445642e+01 +2.9720709130e+01 +8.9616047452e+00 4.4143822999e+01 0.0000000000e+00 0.0000e+00 1.0000e+00
<mgrwt>
<rscale>  4 0.19562679E+03</rscale>
<asrwt>0</asrwt>
<pdfrwt beam="1">  1       21 0.27949474E+00 0.19562679E+03</pdfrwt>
<pdfrwt beam="2">  1       21 0.77056053E-02 0.19562679E+03</pdfrwt>
<totfact> 0.57197819E+03</totfact>
</mgrwt>
</event>
<event>
 6      1 +2.5168323e+02 2.27057100e+02 7.54677100e-03 1.04003000e-01
       21 -1    0    0  504  502 +0.0000000000e+00 +0.0000000000e+00 +3.0224352265e+02 3.0224352265e+02 0.0000000000e+00 0.0000e+00 -1.0000e+00
       21 -1    0    0  502  503 -0.0000000000e+00 -0.0000000000e+00 -2.1225155955e+03 2.1225155955e+03 0.0000000000e+00 0.0000e+00 -1.0000e+00
        6  1    1    2  501    0 -1.5163920370e+02 -1.0089590233e+01 -1.8446657536e+02 2.9504773403e+02 1.7300000000e+02 0.0000e+00 -1.0000e+00
       -6  1    1    2    0  505 +1.1275876915e+02 +1.0256590404e+02 +1.7025787730e+02 2.8662004374e+02 1.7300000000e+02 0.0000e+00 -1.0000e+00
       21  1    1    2  504  501 +4.3451386268e+01 -2.2784367956e+01 -1.7571265109e+03 1.7578113453e+03 0.0000000000e+00 0.0000e+00 -1.0000e+00
       21  1    1    2  505  503 -4.5709517173e+00 -6.9691945848e+01 -4.8936863917e+01 8.5279995109e+01 0.0000000000e+00 0.0000e+00 1.0000e+00
<mgrwt>
<rscale>  4 0.22705706E+03</rscale>
<asrwt>0</asrwt>
<pdfrwt beam="1">  1       21 0.46499002E-01 0.22705706E+03</pdfrwt>
<pdfrwt beam="2">  1       21 0.32654087E+00 0.22705706E+03</pdfrwt>
<totfact> 0.10063895E+02</totfact>
</mgrwt>
</event>
<event>
 6      1 +2.5168323e+02 2.25209900e+02 7.54677100e-03 1.17132900e-01
       21 -1    0    0  503  502 +0.0000000000e+00 +0.0000000000e+00 +3.6569482525e+02 3.6569482525e+02 0.0000000000e+00 0.0000e+00 1.0000e+00
       21 -1    0    0  504  503 -0.0000000000e+00 -0.0000000000e+00 -3.6265789872e+02 3.6265789872e+02 0.0000000000e+00 0.0000e+00 -1.0000e+00
        6  1    1    2  501    0 +1.0977980546e+02 -9.7911530812e+01 +1.7508619337e+02 2.8674457041e+02 1.7300000000e+02 0.0000e+00 1.0000e+00
       -6  1    1    2    0  505 -1.1991523460e+02 +7.0721129290e+01 -3.8202420002e+01 2.2532102989e+02 1.7300000000e+02 0.0000e+00 1.0000e+00
       21  1    1    2  504  501 -4.9617476467e+01 -4.4412539286e+01 -9.3222041435e+01 1.1456315562e+02 0.0000000000e+00 0.0000e+00 -1.0000e+00
       21  1    1    2  505  502 +5.9752905605e+01 +7.1602940807e+01 -4.0624805406e+01 1.0172396804e+02 0.0000000000e+00 0.0000e+00 -1.0000e+00
<mgrwt>
<rscale>  4 0.22520991E+03</rscale>
<asrwt>0</asrwt>
<pdfrwt beam="1">  1       21 0.56260743E-01 0.22520991E+03</pdfrwt>
<pdfrwt beam="2">  1       21 0.55793522E-01 0.22520991E+03</pdfrwt>
<totfact> 0.88005770E+03</totfact>
</mgrwt>
</event>
<event>
 6      1 +2.5168323e+02 2.60732600e+02 7.54677100e-03 1.12068800e-01
       21 -1    0    0  504  502 +0.0000000000e+00 +0.0000000000e+00 +1.0348548479e+02 1.0348548479e+02 0.0000000000e+00 0.0000e+00 1.0000e+00
       21 -1    0    0  502  503 -0.0000000000e+00 -0.0000000000e+00 -2.3211451291e+03 2.3211451291e+03 0.0000000000e+00 0.0000e+00 -1.0000e+00
        6  1    1    2  501    0 +7.1212507066e+01 +1.6394607997e+02 -4.9298437510e+02 5.5218849354e+02 1.7300000000e+02 0.0000e+00 1.0000e+00
       -6  1    1    2    0  505 -6.9992738717e+01 -1.9034140913e+02 -1.7168372257e+02 3.1706960766e+02 1.7300000000e+02 0.0000e+00 1.0000e+00
       21  1    1    2  504  501 -3.6190319708e+01 +1.8376179858e+01 -4.5848883580e+02 4.6028190903e+02 0.0000000000e+00 0.0000e+00 -1.0000e+00
       21  1    1    2  505  503 +3.4970551359e+01 +8.0191493024e+00 -1.0945027108e+03 1.0950906036e+03 0.0000000000e+00 0.0000e+00 -1.0000e+00
<mgrwt>
<rscale>  4 0.26073255E+03</rscale>
<asrwt>0</asrwt>
<pdfrwt beam="1">  1       21 0.15920846E-01 0.26073255E+03</pdfrwt>
<pdfrwt beam="2">  1       21 0.35709921E+00 0.26073255E+03</pdfrwt>
<totfact> 0.51027376E+02</totfact>
</mgrwt>
</event>
<event>
 6      1 +2.5168323e+02 1.81719100e+02 7.54677100e-03 1.11910500e-01
       21 -1    0    0  501  502 +0.0000000000e+00 +0.0000000000e+00 +3.6446032650e+02 3.6446032650e+02 0.0000000000e+00 0.0000e+00 1.0000e+00
       21 -1    0    0  505  503 -0.0000000000e+00 -0.0000000000e+00 -1.8932545246e+02 1.8932545246e+02 0.0000000000e+00 0.0000e+00 1.0000e+00
        6  1    1    2  501    0 +2.5092011273e+01 -2.3624825040e+01 +6.6020818638e+01 1.8834938248e+02 1.7300000000e+02 0.0000e+00 -1.0000e+00
       -6  1    1    2    0  504 -7.7099263146e+01 +1.0661268568e+01 +1.1857854695e+02 2.2371372515e+02 1.7300000000e+02 0.0000e+00 -1.0000e+00
       21  1    1    2  504  503 -7.7724014542e+00 +6.2859066305e+01 -8.0145690660e+00 6.3842820727e+01 0.0000000000e+00 0.0000e+00 1.0000e+00
       21  1    1    2  505  502 +5.9779653328e+01 -4.9895509834e+01 -1.4499224931e+00 7.7879850596e+01 0.0000000000e+00 0.0000e+00 1.0000e+00
<mgrwt>
<rscale>  4 0.18171906E+03</rscale>
<asrwt>0</asrwt>
<pdfrwt beam="1">  1       21 0.56070819E-01 0.18171906E+03</pdfrwt>
<pdfrwt beam="2">  1       21 0.29126993E-01 0.18171906E+03</pdfrwt>
<totfact> 0.33989013E+04</totfact>
</mgrwt>
</event>
<event>
 6      1 +2.5168323e+02 3.16730600e+02 7.54677100e-03 1.16820100e-01
       21 -1    0    0  505  502 +0.0000000000e+00 +0.0000000000e+00 +2.6903188370e+02 2.6903188370e+02 0.0000000000e+00 0.0000e+00 1.0000e+00
       21 -1    0    0  502  503 -0.0000000000e+00 -0.0000000000e+00 -1.3900368489e+03 1.3900368489e+03 0.0000000000e+00 0.0000e+00 1.0000e+00
        6  1    1    2  501    0 +2.5789723066e+02 -2.6442015366e+02 -4.5479701002e+02 6.1089959860e+02 1.7300000000e+02 0.0000e+00 1.0000e+00
       -6  1    1    2    0  503 -1.7796537970e+02 +1.5331803400e+02 -7.0713667764e+02 7.6495057147e+02 1.7300000000e+02 0.0000e+00 1.0000e+00
       21  1    1    2  504  501 +2.0588336680e+01 +5.8004910551e-01 -8.5227726118e+01 8.7681134592e+01 0.0000000000e+00 0.0000e+00 -1.0000e+00
       21  1    1    2  505  504 -1.0052018764e+02 +1.1052207056e+02 +1.2615644859e+02 1.9553742794e+02 0.0000000000e+00 0.0000e+00 1.0000e+00
<mgrwt>
<rscale>  4 0.31673057E+03</rscale>
<asrwt>0</asrwt>
<pdfrwt beam="1">  1       21 0.41389521E-01 0.31673057E+03</pdfrwt>
<pdfrwt beam="2">  1       21 0.21385182E+00 0.31673057E+03</pdfrwt>
<totfact> 0.54862885E+02</totfact>
</mgrwt>
</event>
<event>
 6      1 +2.5168323e+02 2.02590800e+02 7.54677100e-03 1.17132900e-01
       21 -1    0    0  505  502 +0.0000000000e+00 +0.0000000000e+00 +2.6651699825e+02 2.6651699825e+02 0.0000000000e+00 0.0000e+00 -1.0000e+00
       21 -1    0    0  504  503 -0.0000000000e+00 -0.0000000000e+00 -6.3696954941e+02 6.3696954941e+02 0.0000000000e+00 0.0000e+00 -1.0000e+00
        6  1    1    2  501    0 -1.3288515310e+02 +9.2963100290e+01 -1.2527168309e+02 2.6818388563e+02 1.7300000000e+02 0.0000e+00 -1.0000e+00
       -6  1    1    2    0  502 +8.2558911170e+01 +1.8757139304e+01 -3.3004857493e+02 3.8213723438e+02 1.7300000000e+02 0.0000e+00 -1.0000e+00
       21  1    1    2  504  501 +1.9539449231e+01 -9.5394536010e+00 -6.5365079273e+01 6.8886753731e+01 0.0000000000e+00 0.0000e+00 -1.0000e+00
       21  1    1    2  505  503 +3.0786792697e+01 -1.0218078599e+02 +1.5023278613e+02 1.8427867391e+02 0.0000000000e+00 0.0000e+00 -1.0000e+00
<mgrwt>
<rscale>  4 0.20259080E+03</rscale>
<asrwt>0</asrwt>
<pdfrwt beam="1">  1       21 0.41002616E-01 0.20259080E+03</pdfrwt>
<pdfrwt beam="2">  1       21 0.97995313E-01 0.20259080E+03</pdfrwt>
<totfact> 0.48952732E+03</totfact>
</mgrwt>
</event>
<event>
 6      1 +2.5168323e+02 2.38770600e+02 7.54677100e-03 1.12068800e-01
       21 -1    0    0  504  502 +0.0000000000e+00 +0.0000000000e+00 +2.0987653439e+03 2.0987653439e+03 0.0000000000e+00 0.0000e+00 1.0000e+00
       21 -1    0    0  502  503 -0.0000000000e+00 -0.0000000000e+00 -6.5343626342e+02 6.5343626342e+02 0.0000000000e+00 0.0000e+00 1.0000e+00
        6  1    1    2  501    0 -5.2648274991e+01 -1.5009081410e+02 +7.3681300960e+02 7.7338315501e+02 1.7300000000e+02 0.0000e+00 -1.0000e+00
       -6  1    1    2    0  505 +8.3718514179e+01 +1.4663031168e+02 +1.3306762463e+03 1.3524561029e+03 1.7300000000e+02 0.0000e+00 1.0000e+00
       21  1    1    2  504  501 -1.5547650439e+01 -3.0976054494e+01 -2.9878914955e+02 3.0079262170e+02 0.0000000000e+00 0.0000e+00 1.0000e+00
       21  1    1    2  505  503 -1.5522588750e+01 +3.4436556910e+01 -3.2337102586e+02 3.2556972768e+02 0.0000000000e+00 0.0000e+00 1.0000e+00
<mgrwt>
<rscale>  4 0.23877055E+03</rscale>
<asrwt>0</asrwt>
<pdfrwt beam="1">  1       21 0.32288697E+00 0.23877055E+03</pdfrwt>
<pdfrwt beam="2">  1       21 0.10052866E+00 0.23877055E+03</pdfrwt>
<totfact> 0.18851677E+01</totfact>
</mgrwt>
</event>
<event>
 6      1 +2.5168323e+02 3.84353700e+02 7.54677100e-03 1.17132900e-01
       21 -1    0    0  503  502 +0.0000000000e+00 +0.0000000000e+00 +1.1174338265e+03 1.1174338265e+03 0.0000000000e+00 0.0000e+00 -1.0000e+00
       21 -1    0    0  504  503 -0.0000000000e+00 -0.0000000000e+00 -4.8879171431e+02 4.8879171431e+02 0.0000000000e+00 0.0000e+00 -1.0000e+00
        6  1    1    2  501    0 -1.6086957525e+02 -3.0000686992e+02 -3.1867910262e+02 4.9736155128e+02 1.7300000000e+02 0.0000e+00 -1.0000e+00
       -6  1    1    2    0  505 +2.0437252629e+02 +3.0262991985e+02 +5.8453695367e+02 7.1060920913e+02 1.7300000000e+02 0.0000e+00 -1.0000e+00
       21  1    1    2  504  501 -2.3618996863e+01 -4.3530576630e+01 +2.1564046429e+01 5.4016443912e+01 0.0000000000e+00 0.0000e+00 1.0000e+00
       21  1    1    2  505  502 -1.9883954181e+01 +4.0907526701e+01 +3.4122021468e+02 3.4423833645e+02 0.0000000000e+00 0.0000e+00 1.0000e+00
<mgrwt>
<rscale>  4 0.38435371E+03</rscale>
<asrwt>0</asrwt>
<pdfrwt beam="1">  1       21 0.17191290E+00 0.38435371E+03</pdfrwt>
<pdfrwt beam="2">  1       21 0.75198725E-01 0.38435371E+03</pdfrwt>
<totfact> 0.27755775E+02</totfact>
</mgrwt>
</event>
<event>
 6      1 +2.5168323e+02 2.76258300e+02 7.54677100e-03 1.12989000e-01
       21 -1    0    0  501  502 +0.0000000000e+00 +0.0000000000e+00 +1.4715399576e+03 1.4715399576e+03 0.0000000000e+00 0.0000e+00 1.0000e+00
       21 -1    0    0  502  503 -0.0000000000e+00 -0.0000000000e+00 -1.0653933146e+02 1.0653933146e+02 0.0000000000e+00 0.0000e+00 -1.0000e+00
        6  1    1    2  501    0 +2.5635362246e+02 -1.0023346752e+02 +8.2276461745e+02 8.8466634585e+02 1.7300000000e+02 0.0000e+00 -1.0000e+00
       -6  1    1    2    0  505 -1.5156663057e+02 +6.1578564743e+01 +5.0256956897e+02 5.5612007228e+02 1.7300000000e+02 0.0000e+00 1.0000e+00
       21  1    1    2  504  503 -1.3638608569e+01 -1.8972895172e+01 +1.0244980769e+01 2.5513565526e+01 0.0000000000e+00 0.0000e+00 -1.0000e+00
       21  1    1    2  505  504 -9.1148383314e+01 +5.7627797950e+01 +2.9421458993e+01 1.1177930545e+02 0.0000000000e+00 0.0000e+00 -1.0000e+00
<mgrwt>
<rscale>  4 0.27625829E+03</rscale>
<asrwt>0</asrwt>
<pdfrwt beam="1">  1       21 0.22639075E+00 0.27625829E+03</pdfrwt>
<pdfrwt beam="2">  1       21 0.16390667E-01 0.27625829E+03</pdfrwt>
<totfact> 0.28492927E+03</totfact>
</mgrwt>
</event>
<event>
 6      1 +2.5168323e+02 2.96563500e+02 7.54677100e-03 1.16584500e-01
       21 -1    0    0  505  502 +0.0000000000e+00 +0.0000000000e+00 +9.7599510001e+02 9.7599510001e+02 0.0000000000e+00 0.0000e+00 1.0000e+00
       21 -1    0    0  501  503 -0.0000000000e+00 -0.0000000000e+00 -5.4022612042e+02 5.4022612042e+02 0.0000000000e+00 0.0000e+00 1.0000e+00
        6  1    1    2  501    0 +2.2993509022e+02 +8.0838178319e+01 -3.7159026758e+02 4.7687868871e+02 1.7300000000e+02 0.0000e+00 1.0000e+00
       -6  1    1    2    0  502 -2.2476134022e+02 -5.5225072731e+01 +7.9697605558e+01 2.9974685494e+02 1.7300000000e+02 0.0000e+00 -1.0000e+00
       21  1    1    2  504  503 -2.6602966867e+01 -1.0983361682e+01 +3.0442464991e+01 4.1893862972e+01 0.0000000000e+00 0.0000e+00 1.0000e+00
       21  1    1    2  505  504 +2.1429216861e+01 -1.4629743906e+01 +6.9721917662e+02 6.9770181380e+02 0.0000000000e+00 0.0000e+00 1.0000e+00
<mgrwt>
<rscale>  4 0.29656349E+03</rscale>
<asrwt>0</asrwt>
<pdfrwt beam="1">  1       21 0.15015309E+00 0.29656349E+03</pdfrwt>
<pdfrwt beam="2">  1       21 0.83111711E-01 0.29656349E+03</pdfrwt>
<totfact> 0.34032383E+02</totfact>
</mgrwt>
</event>
<event>
 6      1 +2.5168323e+02 1.79266200e+02 7.54677100e-03 1.16820100e-01
       21 -1    0    0  505  502 +0.0000000000e+00 +0.0000000000e+00 +7.0741409831e+01 7.0741409831e+01 0.0000000000e+00 0.0000e+00 -1.0000e+00
       21 -1    0    0  504  503 -0.0000000000e+00 -0.0000000000e+00 -1.0748897609e+03 1.0748897609e+03 0.0000000000e+00 0.0000e+00 1.0000e+00
        6  1    1    2  501    0 -2.4483927195e+01 -1.6088980202e+00 -4.0938557170e+02 4.4511526323e+02 1.7300000000e+02 0.0000e+00 -1.0000e+00
       -6  1    1    2    0  503 +7.0188328838e+01 +9.6065985027e-01 -4.9559411895e+02 5.2959404747e+02 1.7300000000e+02 0.0000e+00 1.0000e+00
       21  1    1    2  504  502 -2.1444909908e+01 -2.0680168375e+01 -1.2566174294e+02 1.2914498505e+02 0.0000000000e+00 0.0000e+00 1.0000e+00
       21  1    1    2  505  501 -2.4259491735e+01 +2.1328406545e+01 +2.6493082501e+01 4.1776875007e+01 0.0000000000e+00 0.0000e+00 -1.0000e+00
<mgrwt>
<rscale>  4 0.17926620E+03</rscale>
<asrwt>0</asrwt>
<pdfrwt beam="1">  1       21 0.10883294E-01 0.17926620E+03</pdfrwt>
<pdfrwt beam="2">  1       21 0.16536765E+00 0.17926620E+03</pdfrwt>
<totfact> 0.16233138E+04</totfact>
</mgrwt>
</event>
<event>
 6      1 +2.5168323e+02 1.88205000e+02 7.54677100e-03 1.12989000e-01
       21 -1    0    0  503  502 +0.0000000000e+00 +0.0000000000e+00 +4.1301114726e+02 4.1301114726e+02 0.0000000000e+00 0.0000e+00 -1.0000e+00
       21 -1    0    0  505  503 -0.0000000000e+00 -0.0000000000e+00 -6.3318593762e+02 6.3318593762e+02 0.0000000000e+00 0.0000e+00 -1.0000e+00
        6  1    1    2  501    0 +6.1121628155e+01 -3.4555322287e+01 +8.3225434072e+01 2.0441476611e+02 1.7300000000e+02 0.0000e+00 -1.0000e+00
       -6  1    1    2    0  502 -6.3120457961e+01 -9.0007232476e+01 +2.1883705051e+02 2.9984020542e+02 1.7300000000e+02 0.0000e+00 -1.0000e+00
       21  1    1    2  504  501 -2.8985369689e+01 +4.7967794339e+01 -2.9195801168e+02 2.9728865020e+02 0.0000000000e+00 0.0000e+00 -1.0000e+00
       21  1    1    2  505  504 +3.0984199494e+01 +7.6594760425e+01 -2.3027926326e+02 2.4465346315e+02 0.0000000000e+00 0.0000e+00 -1.0000e+00
<mgrwt>
<rscale>  4 0.18820497E+03</rscale>
<asrwt>0</asrwt>
<pdfrwt beam="1">  1       21 0.63540177E-01 0.18820497E+03</pdfrwt>
<pdfrwt beam="2">  1       21 0.97413221E-01 0.18820497E+03</pdfrwt>
<totfact> 0.20080061E+03</totfact>
</mgrwt>
</event>
<event>
 6      1 +2.5168323e+02 2.31855800e+02 7.54677100e-03 1.04003000e-01
       21 -1    0    0  504  502 +0.0000000000e+00 +0.0000000000e+00 +1.0684543051e+02 1.0684543051e+02 0.0000000000e+00 0.0000e+00 1.0000e+00
       21 -1    0    0  505  503 -0.0000000000e+00 -0.0000000000e+00 -1.3578783928e+03 1.3578783928e+03 0.0000000000e+00 0.0000e+00 1.0000e+00
        6  1    1    2  501    0 -1.0518104920e+02 -1.2433210591e+02 -7.9503269985e+01 2.5054200368e+02 1.7300000000e+02 0.0000e+00 -1.0000e+00
       -6  1    1    2    0  503 +5.0167404045e+01 +1.0640557963e+02 -7.6737333768e+02 7.9538025824e+02 1.7300000000e+02 0.0000e+00 -1.0000e+00
       21  1    1    2  504  501 -3.3141113336e+00 +2.3518013117e+01 -2.8529694219e+02 2.8628381983e+02 0.0000000000e+00 0.0000e+00 1.0000e+00
       21  1    1    2  505  502 +5.8327756493e+01 -5.5914868447e+00 -1.1885941246e+02 1.3251774158e+02 0.0000000000e+00 0.0000e+00 1.0000e+00
<mgrwt>
<rscale>  4 0.23185577E+03</rscale>
<asrwt>0</asrwt>
<pdfrwt beam="1">  1       21 0.16437760E-01 0.23185577E+03</pdfrwt>
<pdfrwt beam="2">  1       21 0.20890435E+00 0.23185577E+03</pdfrwt>
<totfact> 0.37745365E+03</totfact>
</mgrwt>
</event>
<event>
 6      1 +2.5168323e+02 1.85481200e+02 7.54677100e-03 1.17132900e-01
       21 -1    0    0  503  502 +0.0000000000e+00 +0.0000000000e+00 +3.7545586454e+02 3.7545586454e+02 0.0000000000e+00 0.0000e+00 -1.0000e+00
       21 -1    0    0  504  503 -0.0000000000e+00 -0.0000000000e+00 -4.7438472167e+02 4.7438472167e+02 0.0000000000e+00 0.0000e+00 1.0000e+00
        6  1    1    2  501    0 -8.8463048167e+01 +3.3420973432e+01 +5.3249925848e+01 2.0422347309e+02 1.7300000000e+02 0.0000e+00 -1.0000e+00
       -6  1    1    2    0  505 +4.1728976478e+01 +1.2838771432e+00 +1.9263146824e+01 1.7900565534e+02 1.7300000000e+02 0.0000e+00 -1.0000e+00
       21  1    1    2  504  501 +2.5069973127e+01 -3.9779799269e+01 -3.1644086941e+02 3.1991523848e+02 0.0000000000e+00 0.0000e+00 1.0000e+00
       21  1    1    2  505  502 +2.1664098562e+01 +5.0749486937e+00 +1.4499893960e+02 1.4669621930e+02 0.0000000000e+00 0.0000e+00 -1.0000e+00
<mgrwt>
<rscale>  4 0.18548115E+03</rscale>
<asrwt>0</asrwt>
<pdfrwt beam="1">  1       21 0.57762441E-01 0.18548115E+03</pdfrwt>
<pdfrwt beam="2">  1       21 0.72982265E-01 0.18548115E+03</pdfrwt>
<totfact> 0.47758873E+03</totfact>
</mgrwt>
</event>
<event>
 6      1 +2.5168323e+02 2.21814300e+02 7.54677100e-03 1.15942100e-01
       21 -1    0    0  504  502 +0.0000000000e+00 +0.0000000000e+00 +1.6769368540e+03 1.6769368540e+03 0.0000000000e+00 0.0000e+00 1.0000e+00
       21 -1    0    0  501  503 -0.0000000000e+00 -0.0000000000e+00 -6.3619852996e+01 6.3619852996e+01 0.0000000000e+00 0.0000e+00 -1.0000e+00
        6  1    1    2  501    0 -1.4332035554e+02 -6.3371301895e+01 +7.5391175237e+02 7.8922023325e+02 1.7300000000e+02 0.0000e+00 -1.0000e+00
       -6  1    1    2    0  505 +3.9787258717e+01 +1.4510894404e+02 +6.9229750549e+02 7.2927667432e+02 1.7300000000e+02 0.0000e+00 1.0000e+00
       21  1    1    2  504  503 +6.0633148330e+01 -5.7513457765e+01 +5.6224388358e+01 1.0072416962e+02 0.0000000000e+00 0.0000e+00 -1.0000e+00
       21  1    1    2  505  502 +4.2899948490e+01 -2.4224184383e+01 +1.1088335475e+02 1.2133562977e+02 0.0000000000e+00 0.0000e+00 -1.0000e+00
<mgrwt>
<rscale>  4 0.22181429E+03</rscale>
<asrwt>0</asrwt>
<pdfrwt beam="1">  1       21 0.25799025E+00 0.22181429E+03</pdfrwt>
<pdfrwt beam="2">  1       21 0.97876710E-02 0.22181429E+03</pdfrwt>
<totfact> 0.48861607E+03</totfact>
</mgrwt>
</event>
<event>
 6      1 +2.5168323e+02 2.22609900e+02 7.54677100e-03 9.87464100e-02
       21 -1    0    0  503  502 +0.0000000000e+00 +0.0000000000e+00 +2.2953072123e+02 2.2953072123e+02 0.0000000000e+00 0.0000e+00 -1.0000e+00
       21 -1    0    0  505  503 -0.0000000000e+00 -0.0000000000e+00 -1.0370187784e+03 1.0370187784e+03 0.0000000000e+00 0.0000e+00 -1.0000e+00
        6  1    1    2  501    0 +1.2800940829e+02 +4.5507237808e+01 +1.1062551217e+02 2.4622006670e+02 1.7300000000e+02 0.0000e+00 -1.0000e+00
       -6  1    1    2    0  504 -1.2088546573e+02 -1.6829009087e+02 -5.3608204989e+02 6.0020647675e+02 1.7300000000e+02 0.0000e+00 -1.0000e+00
       21  1    1    2  504  502 -2.9290278939e+01 +1.0604639905e+02 -1.4780550470e+02 1.8425587212e+02 0.0000000000e+00 0.0000e+00 -1.0000e+00
       21  1    1    2  505  501 +2.2166336380e+01 +1.6736454015e+01 -2.3422601470e+02 2.3586708402e+02 0.0000000000e+00 0.0000e+00 -1.0000e+00
<mgrwt>
<rscale>  4 0.22260988E+03</rscale>
<asrwt>0</asrwt>
<pdfrwt beam="1">  1       21 0.35312419E-01 0.22260988E+03</pdfrwt>
<pdfrwt beam="2">  1       21 0.15954135E+00 0.22260988E+03</pdfrwt>
<totfact> 0.19072515E+03</totfact>
</mgrwt>
</event>
<event>
 6      1 +2.5168323e+02 1.92527500e+02 7.54677100e-03 1.03924000e-01
       21 -1    0    0  504  502 +0.0000000000e+00 +0.0000000000e+00 +5.2235752879e+02 5.2235752879e+02 0.0000000000e+00 0.0000e+00 -1.0000e+00
       21 -1    0    0  501  503 -0.0000000000e+00 -0.0000000000e+00 -7.6495411320e+02 7.6495411320e+02 0.0000000000e+00 0.0000e+00 -1.0000e+00
        6  1    1    2  501    0 +3.8930750804e+01 +1.6110980384e+02 -2.7377810855e+02 3.6380685119e+02 1.7300000000e+02 0.0000e+00 -1.0000e+00
       -6  1    1    2    0  505 -1.5541764551e+01 -4.7719270155e+01 -4.0679351281e+02 4.4489171408e+02 1.7300000000e+02 0.0000e+00 1.0000e+00
       21  1    1    2  504  503 -3.2497703860e+01 -1.3882246175e+02 +4.2569961225e+02 4.4894090537e+02 0.0000000000e+00 0.0000e+00 -1.0000e+00
       21  1    1    2  505  502 +9.1087176063e+00 +2.5431928066e+01 +1.2275424698e+01 2.9672171358e+01 0.0000000000e+00 0.0000e+00 -1.0000e+00
<mgrwt>
<rscale>  4 0.19252754E+03</rscale>
<asrwt>0</asrwt>
<pdfrwt beam="1">  1       21 0.80362697E-01 0.19252754E+03</pdfrwt>
<pdfrwt beam="2">  1       21 0.11768525E+00 0.19252754E+03</pdfrwt>
<totfact> 0.75448960E+02</totfact>
</mgrwt>
</event>
<event>
 6      1 +2.5168323e+02 3.34657800e+02 7.54677100e-03 1.11471900e-01
       21 -1    0    0  503  502 +0.0000000000e+00 +0.0000000000e+00 +1.7647577197e+03 1.7647577197e+03 0.0000000000e+00 0.0000e+00 1.0000e+00
       21 -1    0    0  501  503 -0.0000000000e+00 -0.0000000000e+00 -3.7430229452e+02 3.7430229452e+02 0.0000000000e+00 0.0000e+00 1.0000e+00
        6  1    1    2  501    0 +5.0501662393e+01 +3.3588751550e+02 +1.1539518425e+02 3.9826610391e+02 1.7300000000e+02 0.0000e+00 1.0000e+00
       -6  1    1    2    0  504 +8.8007863279e+00 -2.2627081730e+02 -5.3749226259e+01 2.8998951002e+02 1.7300000000e+02 0.0000e+00 1.0000e+00
       21  1    1    2  504  505 -8.0340998886e+01 -9.7522712983e+01 +4.6676873051e+00 1.2644027426e+02 0.0000000000e+00 0.0000e+00 1.0000e+00
       21  1    1    2  505  502 +2.1038550165e+01 -1.2093985224e+01 +1.3241417799e+03 1.3243641260e+03 0.0000000000e+00 0.0000e+00 1.0000e+00
<mgrwt>
<rscale>  4 0.33465776E+03</rscale>
<asrwt>0</asrwt>
<pdfrwt beam="1">  1       21 0.27150118E+00 0.33465776E+03</pdfrwt>
<pdfrwt beam="2">  1       21 0.57584970E-01 0.33465776E+03</pdfrwt>
<totfact> 0.11977278E+02</totfact>
</mgrwt>
</event>
<event>
 6      1 +2.5168323e+02 1.95896700e+02 7.54677100e-03 1.11471900e-01
       21 -1    0    0  503  502 +0.0000000000e+00 +0.0000000000e+00 +1.3858197012e+02 1.3858197012e+02 0.0000000000e+00 0.0000e+00 1.0000e+00
       21 -1    0    0  501  503 -0.0000000000e+00 -0.0000000000e+00 -7.4580196071e+02 7.4580196071e+02 0.0000000000e+00 0.0000e+00 1.0000e+00
        6  1    1    2  501    0 -4.6028000380e+01 -8.8072647255e+01 -2.4588446866e+01 2.0101979935e+02 1.7300000000e+02 0.0000e+00 1.0000e+00
       -6  1    1    2    0  504 +1.0011701753e+02 -6.4964383382e-01 -5.1908721289e+02 5.5624129101e+02 1.7300000000e+02 0.0000e+00 1.0000e+00
       21  1    1    2  504  505 -1.6404929263e+01 +1.4011205227e+01 -3.0047334446e+01 3.6990240380e+01 0.0000000000e+00 0.0000e+00 1.0000e+00
       21  1    1    2  505  502 -3.7684087887e+01 +7.4711085861e+01 -3.3496996394e+01 9.0132600084e+01 0.0000000000e+00 0.0000e+00 1.0000e+00
<mgrwt>
<rscale>  4 0.19589668E+03</rscale>
<asrwt>0</asrwt>
<pdfrwt beam="1">  1       21 0.21320303E-01 0.19589668E+03</pdfrwt>
<pdfrwt beam="2">  1       21 0.11473876E+00 0.19589668E+03</pdfrwt>
<totfact> 0.12044942E+04</totfact>
</mgrwt>
</event>
<event>
 6      1 +2.5168323e+02 2.85596400e+02 7.54677100e-03 1.16820100e-01
       21 -1    0    0  505  502 +0.0000000000e+00 +0.0000000000e+00 +9.4545957634e+02 9.4545957634e+02 0.0000000000e+00 0.0000e+00 -1.0000e+00
       21 -1    0    0  501  503 -0.0000000000e+00 -0.0000000000e+00 -8.0938526961e+02 8.0938526961e+02 0.0000000000e+00 0.0000e+00 1.0000e+00
        6  1    1    2  501    0 +1.2068854823e+02 +2.0414702505e+00 +9.9433018415e+01 2.3320767231e+02 1.7300000000e+02 0.0000e+00 1.0000e+00
       -6  1    1    2    0  502 -3.4259940305e+02 +8.0567947735e+01 +6.7972879024e+02 7.8474567437e+02 1.7300000000e+02 0.0000e+00 -1.0000e+00
       21  1    1    2  504  503 +2.1758435922e+02 -5.3660167640e+01 -6.6407804782e+02 7.0087232829e+02 0.0000000000e+00 0.0000e+00 1.0000e+00
       21  1    1    2  505  504 +4.3264955950e+00 -2.8949250346e+01 +2.0990545900e+01 3.6019170963e+01 0.0000000000e+00 0.0000e+00 1.0000e+00
<mgrwt>
<rscale>  4 0.26490917E+03</rscale>
<asrwt>0</asrwt>
<pdfrwt beam="1">  1       21 0.14545532E+00 0.28559641E+03</pdfrwt>
<pdfrwt beam="2">  1       21 0.12452081E+00 0.28559641E+03</pdfrwt>
<totfact> 0.14101311E+02</totfact>
</mgrwt>
</event>
<event>
 6      1 +2.5168323e+02 2.30319700e+02 7.54677100e-03 1.05831300e-01
       21 -1    0    0  504  502 +0.0000000000e+00 +0.0000000000e+00 +1.7648791011e+02 1.7648791011e+02 0.0000000000e+00 0.0000e+00 -1.0000e+00
       21 -1    0    0  501  503 -0.0000000000e+00 -0.0000000000e+00 -8.3525628024e+02 8.3525628024e+02 0.0000000000e+00 0.0000e+00 1.0000e+00
        6  1    1    2  501    0 -9.9857125089e+01 -1.1972271177e+02 -3.8346610826e+02 4.4864265216e+02 1.7300000000e+02 0.0000e+00 1.0000e+00
       -6  1    1    2    0  505 +1.0765187420e+02 +1.5332821155e+02 -2.4052727552e+02 3.5054363030e+02 1.7300000000e+02 0.0000e+00 -1.0000e+00
       21  1    1    2  504  503 +2.0912480279e+01 +6.8506386757e+01 -7.0627827122e+01 1.0059198190e+02 0.0000000000e+00 0.0000e+00 -1.0000e+00
       21  1    1    2  505  502 -2.8707229387e+01 -1.0211188654e+02 +3.5852840774e+01 1.1196592599e+02 0.0000000000e+00 0.0000e+00 -1.0000e+00
<mgrwt>
<rscale>  4 0.23031970E+03</rscale>
<asrwt>0</asrwt>
<pdfrwt beam="1">  1       21 0.27151986E-01 0.23031970E+03</pdfrwt>
<pdfrwt beam="2">  1       21 0.12850097E+00 0.23031970E+03</pdfrwt>
<totfact> 0.55925068E+03</totfact>
</mgrwt>
</event>
<event>
 6      1 +2.5168323e+02 1.86606400e+02 7.54677100e-03 1.17132900e-01
       21 -1    0    0  505  502 +0.0000000000e+00 +0.0000000000e+00 +8.5485849602e+02 8.5485849602e+02 0.0000000000e+00 0.0000e+00 1.0000e+00
       21 -1    0    0  504  503 -0.0000000000e+00 -0.0000000000e+00 -2.4321112602e+02 2.4321112602e+02 0.0000000000e+00 0.0000e+00 1.0000e+00
        6  1    1    2  501    0 +4.3310514399e+01 -4.8029743747e+01 +5.9673491206e+02 6.2466327907e+02 1.7300000000e+02 0.0000e+00 1.0000e+00
       -6  1    1    2    0  502 -1.1169979649e+01 +8.3497366527e+01 +1.4836685344e+02 2.4297798637e+02 1.7300000000e+02 0.0000e+00 1.0000e+00
       21  1    1    2  504  501 -1.3933969630e+01 -1.9875707454e+01 -1.7810438707e+02 1.7975086077e+02 0.0000000000e+00 0.0000e+00 1.0000e+00
       21  1    1    2  505  503 -1.8206565120e+01 -1.5591915325e+01 +4.4649991561e+01 5.0677495828e+01 0.0000000000e+00 0.0000e+00 1.0000e+00
<mgrwt>
<rscale>  4 0.18660637E+03</rscale>
<asrwt>0</asrwt>
<pdfrwt beam="1">  1       21 0.13151669E+00 0.18660637E+03</pdfrwt>
<pdfrwt beam="2">  1       21 0.37417097E-01 0.18660637E+03</pdfrwt>
<totfact> 0.29074157E+03</totfact>
</mgrwt>
</event>
<event>
 6      1 +2.5168323e+02 1.90202500e+02 7.54677100e-03 1.16820100e-01
       21 -1    0    0  505  502 +0.0000000000e+00 +0.0000000000e+00 +1.7339490053e+02 1.7339490053e+02 0.0000000000e+00 0.0000e+00 -1.0000e+00
       21 -1    0    0  501  503 -0.0000000000e+00 -0.0000000000e+00 -7.9677867699e+02 7.9677867699e+02 0.0000000000e+00 0.0000e+00 -1.0000e+00
        6  1    1    2  501    0 +4.8185177337e+01 -4.7578666797e+00 -6.3309996260e+01 1.9047730636e+02 1.7300000000e+02 0.0000e+00 -1.0000e+00
       -6  1    1    2    0  502 -8.5402267507e+01 +6.7975388822e+01 -5.3472328038e+00 2.0462598486e+02 1.7300000000e+02 0.0000e+00 1.0000e+00
       21  1    1    2  504  503 +3.0150627299e+01 -1.6802148416e+01 -5.0681662391e+02 5.0799061289e+02 0.0000000000e+00 0.0000e+00 -1.0000e+00
       21  1    1    2  505  504 +7.0664628708e+00 -4.6415373727e+01 -4.7909923485e+01 6.7079673405e+01 0.0000000000e+00 0.0000e+00 -1.0000e+00
<mgrwt>
<rscale>  4 0.19020251E+03</rscale>
<asrwt>0</asrwt>
<pdfrwt beam="1">  1       21 0.26676138E-01 0.19020251E+03</pdfrwt>
<pdfrwt beam="2">  1       21 0.12258134E+00 0.19020251E+03</pdfrwt>
<totfact> 0.67127468E+03</totfact>
</mgrwt>
</event>
<event>
 6      1 +2.5168323e+02 1.88668800e+02 7.54677100e-03 1.17132900e-01
       21 -1    0    0  505  502 +0.0000000000e+00 +0.0000000000e+00 +9.9787550904e+02 9.9787550904e+02 0.0000000000e+00 0.0000e+00 1.0000e+00
       21 -1    0    0  504  503 -0.0000000000e+00 -0.0000000000e+00 -8.8916267593e+01 8.8916267593e+01 0.0000000000e+00 0.0000e+00 1.0000e+00
        6  1    1    2  501    0 +2.6460078575e+01 +1.7332171072e+01 +5.1906267239e+02 5.4804707624e+02 1.7300000000e+02 0.0000e+00 1.0000e+00
       -6  1    1    2    0  502 -9.1240403624e+01 -3.6529094649e+01 +1.4662544794e+02 2.4715826507e+02 1.7300000000e+02 0.0000e+00 1.0000e+00
       21  1    1    2  504  501 +2.0218672375e+01 -1.6745268786e+01 -1.2790644423e+01 2.9202728024e+01 0.0000000000e+00 0.0000e+00 1.0000e+00
       21  1    1    2  505  503 +4.4561652674e+01 +3.5942192363e+01 +2.5606176554e+02 2.6238370729e+02 0.0000000000e+00 0.0000e+00 1.0000e+00
<mgrwt>
<rscale>  4 0.18866880E+03</rscale>
<asrwt>0</asrwt>
<pdfrwt beam="1">  1       21 0.15351930E+00 0.18866880E+03</pdfrwt>
<pdfrwt beam="2">  1       21 0.13679426E-01 0.18866880E+03</pdfrwt>
<totfact> 0.13074022E+04</totfact>
</mgrwt>
</event>
<event>
 6      1 +2.5168323e+02 2.71333700e+02 7.54677100e-03 1.03924000e-01
       21 -1    0    0  504  502 +0.0000000000e+00 +0.0000000000e+00 +4.2547350628e+02 4.2547350628e+02 0.0000000000e+00 0.0000e+00 1.0000e+00
       21 -1    0    0  501  503 -0.0000000000e+00 -0.0000000000e+00 -6.5603878454e+02 6.5603878454e+02 0.0000000000e+00 0.0000e+00 -1.0000e+00
        6  1    1    2  501    0 -2.1683715569e+02 -1.7063967134e+02 -6.0962664513e+01 3.3133320991e+02 1.7300000000e+02 0.0000e+00 -1.0000e+00
       -6  1    1    2    0  505 +1.7566670355e+02 +7.8075890247e+01 -4.1057489904e+02 4.8523745022e+02 1.7300000000e+02 0.0000e+00 -1.0000e+00
       21  1    1    2  504  503 +2.9579147103e+01 +4.1171707185e+01 +1.6407547446e+02 1.7172884655e+02 0.0000000000e+00 0.0000e+00 1.0000e+00
       21  1    1    2  505  502 +1.1591305032e+01 +5.1392073913e+01 +7.6896810831e+01 9.3212784152e+01 0.0000000000e+00 0.0000e+00 1.0000e+00
<mgrwt>
<rscale>  4 0.27133368E+03</rscale>
<asrwt>0</asrwt>
<pdfrwt beam="1">  1       21 0.65457463E-01 0.27133368E+03</pdfrwt>
<pdfrwt beam="2">  1       21 0.10092904E+00 0.27133368E+03</pdfrwt>
<totfact> 0.16182491E+03</totfact>
</mgrwt>
</event>
<event>
 6      1 +2.5168323e+02 1.93018800e+02 7.54677100e-03 1.16820100e-01
       21 -1    0    0  501  502 +0.0000000000e+00 +0.0000000000e+00 +4.6471676888e+02 4.6471676888e+02 0.0000000000e+00 0.0000e+00 -1.0000e+00
       21 -1    0    0  504  503 -0.0000000000e+00 -0.0000000000e+00 -4.5085507006e+02 4.5085507006e+02 0.0000000000e+00 0.0000e+00 -1.0000e+00
        6  1    1    2  501    0 +5.4471488620e+01 +4.5657851076e+01 -3.7756310678e+01 1.9080440622e+02 1.7300000000e+02 0.0000e+00 -1.0000e+00
       -6  1    1    2    0  503 -9.6548636916e+01 -3.1142548103e+01 -7.4756026990e+01 2.1403028095e+02 1.7300000000e+02 0.0000e+00 -1.0000e+00
       21  1    1    2  504  505 +8.6417310421e+00 -2.5616167148e+01 -1.9024896751e+02 1.9216018623e+02 0.0000000000e+00 0.0000e+00 -1.0000e+00
       21  1    1    2  505  502 +3.3435417254e+01 +1.1100864176e+01 +3.1662300399e+02 3.1857696554e+02 0.0000000000e+00 0.0000e+00 -1.0000e+00
<mgrwt>
<rscale>  4 0.19301876E+03</rscale>
<asrwt>0</asrwt>
<pdfrwt beam="1">  1       21 0.71494887E-01 0.19301876E+03</pdfrwt>
<pdfrwt beam="2">  1       21 0.69362319E-01 0.19301876E+03</pdfrwt>
<totfact> 0.33426428E+03</totfact>
</mgrwt>
</event>
<event>
 6      1 +2.5168323e+02 2.02095500e+02 7.54677100e-03 1.16820100e-01
       21 -1    0    0  504  502 +0.0000000000e+00 +0.0000000000e+00 +3.4448728942e+02 3.4448728942e+02 0.0000000000e+00 0.0000e+00 -1.0000e+00
       21 -1    0    0  501  503 -0.0000000000e+00 -0.0000000000e+00 -2.9216638691e+02 2.9216638691e+02 0.0000000000e+00 0.0000e+00 -1.0000e+00
        6  1    1    2  501    0 +2.6099553061e+01 -9.2074352298e+01 -6.1051270046e+01 2.0691817367e+02 1.7300000000e+02 0.0000e+00 1.0000e+00
       -6  1    1    2    0  505 -1.2534939142e+02 +3.5523390502e+01 +2.3266189539e+01 2.1781803593e+02 1.7300000000e+02 0.0000e+00 -1.0000e+00
       21  1    1    2  504  503 +9.7387264956e+01 +2.2337826805e+01 -1.5301293083e+01 1.0108109345e+02 0.0000000000e+00 0.0000e+00 -1.0000e+00
       21  1    1    2  505  502 +1.8625734026e+00 +3.4213134991e+01 +1.0540727611e+02 1.1083637328e+02 0.0000000000e+00 0.0000e+00 -1.0000e+00
<mgrwt>
<rscale>  4 0.20209554E+03</rscale>
<asrwt>0</asrwt>
<pdfrwt beam="1">  1       21 0.52998045E-01 0.20209554E+03</pdfrwt>
<pdfrwt beam="2">  1       21 0.44948675E-01 0.20209554E+03</pdfrwt>
<totfact> 0.15925652E+04</totfact>
</mgrwt>
</event>
<event>
 6      1 +2.5168323e+02 2.29199100e+02 7.54677100e-03 1.09842800e-01
       21 -1    0    0  503  502 +0.0000000000e+00 +0.0000000000e+00 +6.4168579243e+02 6.4168579243e+02 0.0000000000e+00 0.0000e+00 -1.0000e+00
       21 -1    0    0  501  503 -0.0000000000e+00 -0.0000000000e+00 -2.6408875525e+03 2.6408875525e+03 0.0000000000e+00 0.0000e+00 1.0000e+00
        6  1    1    2  501    0 -1.0605662095e+02 -2.1588571222e+01 -1.6311673216e+03 1.6438825701e+03 1.7300000000e+02 0.0000e+00 1.0000e+00
       -6  1    1    2    0  504 +1.0692412734e+02 -5.7167890923e+01 -3.9004684631e+02 4.4358367765e+02 1.7300000000e+02 0.0000e+00 1.0000e+00
       21  1    1    2  504  505 -8.7595935682e+01 +9.7296896199e+01 -5.7593032504e+02 5.9062295355e+02 0.0000000000e+00 0.0000e+00 -1.0000e+00
       21  1    1    2  505  502 +8.6728429288e+01 -1.8540434054e+01 +5.9794273286e+02 6.0448414365e+02 0.0000000000e+00 0.0000e+00 -1.0000e+00
<mgrwt>
<rscale>  4 0.22919913E+03</rscale>
<asrwt>0</asrwt>
<pdfrwt beam="1">  1       21 0.98720894E-01 0.22919913E+03</pdfrwt>
<pdfrwt beam="2">  1       21 0.40629038E+00 0.22919913E+03</pdfrwt>
<totfact> 0.62547515E+00</totfact>
</mgrwt>
</event>
<event>
 6      1 +2.5168323e+02 2.03569800e+02 7.54677100e-03 1.16820100e-01
       21 -1    0    0  501  502 +0.0000000000e+00 +0.0000000000e+00 +1.6519098613e+03 1.6519098613e+03 0.0000000000e+00 0.0000e+00 -1.0000e+00
       21 -1    0    0  504  503 -0.0000000000e+00 -0.0000000000e+00 -1.9671071356e+02 1.9671071356e+02 0.0000000000e+00 0.0000e+00 1.0000e+00
        6  1    1    2  501    0 -1.1852611102e+02 +1.4325738006e+01 +8.5113628544e+02 8.7670727279e+02 1.7300000000e+02 0.0000e+00 -1.0000e+00
       -6  1    1    2    0  503 +5.6462812345e+01 -1.1107667334e+01 +3.5395520426e+00 1.8235393574e+02 1.7300000000e+02 0.0000e+00 1.0000e+00
       21  1    1    2  504  505 +5.7243605020e+01 +2.4778312129e+01 -8.3900043381e+01 1.0454669936e+02 0.0000000000e+00 0.0000e+00 1.0000e+00
       21  1    1    2  505  502 +4.8196936514e+00 -2.7996382801e+01 +6.8442335367e+02 6.8501266700e+02 0.0000000000e+00 0.0000e+00 -1.0000e+00
<mgrwt>
<rscale>  4 0.20356979E+03</rscale>
<asrwt>0</asrwt>
<pdfrwt beam="1">  1       21 0.25413997E+00 0.20356979E+03</pdfrwt>
<pdfrwt beam="2">  1       21 0.30263188E-01 0.20356979E+03</pdfrwt>
<totfact> 0.64961346E+02</totfact>
</mgrwt>
</event>
<event>
 6      1 +2.5168323e+02 2.59444300e+02 7.54677100e-03 1.17132900e-01
       21 -1    0    0  505  502 +0.0000000000e+00 +0.0000000000e+00 +1.1057466148e+02 1.1057466148e+02 0.0000000000e+00 0.0000e+00 1.0000e+00
       21 -1    0    0  504  503 -0.0000000000e+00 -0.0000000000e+00 -8.7394707657e+02 8.7394707657e+02 0.0000000000e+00 0.0000e+00 -1.0000e+00
        6  1    1    2  501    0 +2.0683615656e+02 +4.0594170129e+01 -5.3031528450e+02 5.9631567419e+02 1.7300000000e+02 0.0000e+00 -1.0000e+00
       -6  1    1    2    0  502 -1.6096503625e+02 -1.7870624830e+01 -1.7323161636e+02 2.9354266305e+02 1.7300000000e+02 0.0000e+00 1.0000e+00
       21  1    1    2  504  501 +5.5121233363e+00 -2.0503456579e+01 -1.1772379454e+01 2.4276823379e+01 0.0000000000e+00 0.0000e+00 1.0000e+00
       21  1    1    2  505  503 -5.1383243643e+01 -2.2200887199e+00 -4.8053134781e+01 7.0386577438e+01 0.0000000000e+00 0.0000e+00 1.0000e+00
<mgrwt>
<rscale>  4 0.25944426E+03</rscale>
<asrwt>0</asrwt>
<pdfrwt beam="1">  1       21 0.17011487E-01 0.25944426E+03</pdfrwt>
<pdfrwt beam="2">  1       21 0.13445339E+00 0.25944426E+03</pdfrwt>
<totfact> 0.11853565E+04</totfact>
</mgrwt>
</event>
<event>
 6      1 +2.5168323e+02 1.95126500e+02 7.54677100e-03 1.16820100e-01
       21 -1    0    0  501  502 +0.0000000000e+00 +0.0000000000e+00 +9.8133004283e+02 9.8133004283e+02 0.0000000000e+00 0.0000e+00 -1.0000e+00
       21 -1    0    0  504  503 -0.0000000000e+00 -0.0000000000e+00 -3.1745846272e+02 3.1745846272e+02 0.0000000000e+00 0.0000e+00 -1.0000e+00
        6  1    1    2  501    0 +3.2847556843e+01 +3.2474744353e+01 +4.0456092588e+01 1.8357359951e+02 1.7300000000e+02 0.0000e+00 1.0000e+00
       -6  1    1    2    0  503 -1.1548477994e+02 -1.0553028420e+02 -5.9658676232e+01 2.4075201543e+02 1.7300000000e+02 0.0000e+00 -1.0000e+00
       21  1    1    2  504  505 +6.8394646441e+01 +4.5740711783e+01 -7.7638201583e+01 1.1312705566e+02 0.0000000000e+00 0.0000e+00 -1.0000e+00
       21  1    1    2  505  502 +1.4242576656e+01 +2.7314828067e+01 +7.6071236533e+02 7.6133583496e+02 0.0000000000e+00 0.0000e+00 -1.0000e+00
<mgrwt>
<rscale>  4 0.19512648E+03</rscale>
<asrwt>0</asrwt>
<pdfrwt beam="1">  1       21 0.15097385E+00 0.19512648E+03</pdfrwt>
<pdfrwt beam="2">  1       21 0.48839764E-01 0.19512648E+03</pdfrwt>
<totfact> 0.11728126E+03</totfact>
</mgrwt>
</event>
<event>
 6      1 +2.5168323e+02 4.40088500e+02 7.54677100e-03 1.11471900e-01
       21 -1    0    0  503  502 +0.0000000000e+00 +0.0000000000e+00 +5.8758790129e+02 5.8758790129e+02 0.0000000000e+00 0.0000e+00 -1.0000e+00
       21 -1    0    0  501  503 -0.0000000000e+00 -0.0000000000e+00 -5.2373419830e+02 5.2373419830e+02 0.0000000000e+00 0.0000e+00 1.0000e+00
        6  1    1    2  501    0 -4.2996223049e+02 +1.9728728812e+02 -1.1985686259e+02 5.1776873333e+02 1.7300000000e+02 0.0000e+00 1.0000e+00
       -6  1    1    2    0  504 +3.2339555834e+02 -9.6706084499e+01 +1.3231241532e+02 4.0171174887e+02 1.7300000000e+02 0.0000e+00 -1.0000e+00
       21  1    1    2  504  505 +4.2457080273e+01 -2.8003674808e+01 -3.5262706565e+01 6.1889158521e+01 0.0000000000e+00 0.0000e+00 1.0000e+00
       21  1    1    2  505  502 +6.4109591877e+01 -7.2577528817e+01 +8.6660856817e+01 1.2995245886e+02 0.0000000000e+00 0.0000e+00 -1.0000e+00
<mgrwt>
<rscale>  4 0.44008851E+03</rscale>
<asrwt>0</asrwt>
<pdfrwt beam="1">  1       21 0.90398139E-01 0.44008851E+03</pdfrwt>
<pdfrwt beam="2">  1       21 0.80574492E-01 0.44008851E+03</pdfrwt>
<totfact> 0.12064944E+03</totfact>
</mgrwt>
</event>
<event>
 6      1 +2.5168323e+02 2.13745800e+02 7.54677100e-03 1.03924000e-01
       21 -1    0    0  504  502 +0.0000000000e+00 +0.0000000000e+00 +2.3234812428e+02 2.3234812428e+02 0.0000000000e+00 0.0000e+00 1.0000e+00
       21 -1    0    0  501  503 -0.0000000000e+00 -0.0000000000e+00 -2.6150676479e+02 2.6150676479e+02 0.0000000000e+00 0.0000e+00 1.0000e+00
        6  1    1    2  501    0 +4.4062582825e+01 -1.2378178291e+02 -6.3014686924e+01 2.2619304090e+02 1.7300000000e+02 0.0000e+00 1.0000e+00
       -6  1    1    2    0  505 +3.0130430591e+00 +1.2239451980e+02 +9.7460292273e+00 2.1216380934e+02 1.7300000000e+02 0.0000e+00 1.0000e+00
       21  1    1    2  504  503 -2.3516054930e+01 -6.1974661393e+00 +6.6594442085e+00 2.5214313855e+01 0.0000000000e+00 0.0000e+00 1.0000e+00
       21  1    1    2  505  502 -2.3559570954e+01 +7.5847292420e+00 +1.7450572978e+01 3.0283724977e+01 0.0000000000e+00 0.0000e+00 -1.0000e+00
<mgrwt>
<rscale>  4 0.21374579E+03</rscale>
<asrwt>0</asrwt>
<pdfrwt beam="1">  1       21 0.35745865E-01 0.21374579E+03</pdfrwt>
<pdfrwt beam="2">  1       21 0.40231810E-01 0.21374579E+03</pdfrwt>
<totfact> 0.44463190E+04</totfact>
</mgrwt>
</event>
<event>
 6      1 +2.5168323e+02 2.39583200e+02 7.54677100e-03 1.11471900e-01
       21 -1    0    0  503  502 +0.0000000000e+00 +0.0000000000e+00 +4.2815909915e+02 4.2815909915e+02 0.0000000000e+00 0.0000e+00 1.0000e+00
       21 -1    0    0  501  503 -0.0000000000e+00 -0.0000000000e+00 -7.6294453349e+02 7.6294453349e+02 0.0000000000e+00 0.0000e+00 1.0000e+00
        6  1    1    2  501    0 +1.7271694750e+02 +2.3285936375e+01 -5.9993634344e+02 6.4824840529e+02 1.7300000000e+02 0.0000e+00 1.0000e+00
       -6  1    1    2    0  504 -1.3353590202e+02 +1.3374596843e+01 -2.4376150443e+01 2.2030413904e+02 1.7300000000e+02 0.0000e+00 1.0000e+00
       21  1    1    2  504  505 -2.7408072430e+01 -1.9817077505e+01 +1.5664347238e+00 3.3858126247e+01 0.0000000000e+00 0.0000e+00 1.0000e+00
       21  1    1    2  505  502 -1.1772973052e+01 -1.6843455712e+01 +2.8796062481e+02 2.8869296205e+02 0.0000000000e+00 0.0000e+00 1.0000e+00
<mgrwt>
<rscale>  4 0.23958321E+03</rscale>
<asrwt>0</asrwt>
<pdfrwt beam="1">  1       21 0.65870631E-01 0.23958321E+03</pdfrwt>
<pdfrwt beam="2">  1       21 0.11737608E+00 0.23958321E+03</pdfrwt>
<totfact> 0.11311821E+03</totfact>
</mgrwt>
</event>
<event>
 6      1 +2.5168323e+02 2.30350700e+02 7.54677100e-03 1.16820100e-01
       21 -1    0    0  504  502 +0.0000000000e+00 +0.0000000000e+00 +7.7407452085e+02 7.7407452085e+02 0.0000000000e+00 0.0000e+00 1.0000e+00
       21 -1    0    0  501  503 -0.0000000000e+00 -0.0000000000e+00 -5.5948120096e+02 5.5948120096e+02 0.0000000000e+00 0.0000e+00 -1.0000e+00
        6  1    1    2  501    0 +1.2617775104e+02 -3.8793141451e+01 -3.0024479636e+02 3.7081217675e+02 1.7300000000e+02 0.0000e+00 -1.0000e+00
       -6  1    1    2    0  505 -1.2408747138e+02 +4.8259924385e+00 +2.4606989680e+02 3.2542339324e+02 1.7300000000e+02 0.0000e+00 1.0000e+00
       21  1    1    2  504  503 +3.4884412808e+01 +4.4019800600e+01 -1.7915913583e+02 1.8775692012e+02 0.0000000000e+00 0.0000e+00 -1.0000e+00
       21  1    1    2  505  502 -3.6974692467e+01 -1.0052651588e+01 +4.4792735528e+02 4.4956323170e+02 0.0000000000e+00 0.0000e+00 1.0000e+00
<mgrwt>
<rscale>  4 0.23035070E+03</rscale>
<asrwt>0</asrwt>
<pdfrwt beam="1">  1       21 0.11908839E+00 0.23035070E+03</pdfrwt>
<pdfrwt beam="2">  1       21 0.86074031E-01 0.23035070E+03</pdfrwt>
<totfact> 0.60303560E+02</totfact>
</mgrwt>
</event>
<event>
 6      1 +2.5168323e+02 2.05328200e+02 7.54677100e-03 1.12989000e-01
       21 -1    0    0  503  502 +0.0000000000e+00 +0.0000000000e+00 +2.8575831150e+02 2.8575831150e+02 0.0000000000e+00 0.0000e+00 -1.0000e+00
       21 -1    0    0  505  503 -0.0000000000e+00 -0.0000000000e+00 -3.3474889728e+02 3.3474889728e+02 0.0000000000e+00 0.0000e+00 1.0000e+00
        6  1    1    2  501    0 +4.3677896790e+01 +1.1707751586e+02 +7.8517682385e+01 2.2739597585e+02 1.7300000000e+02 0.0000e+00 1.0000e+00
       -6  1    1    2    0  502 -8.0519162157e+01 -6.4693395047e+01 +4.2998749201e+01 2.0602539472e+02 1.7300000000e+02 0.0000e+00 -1.0000e+00
       21  1    1    2  504  501 -8.4939335693e+00 -1.8316168347e+01 -4.0720788746e+01 4.5451199836e+01 0.0000000000e+00 0.0000e+00 1.0000e+00
       21  1    1    2  505  504 +4.5335198937e+01 -3.4067952463e+01 -1.2978622862e+02 1.4163463837e+02 0.0000000000e+00 0.0000e+00 1.0000e+00
<mgrwt>
<rscale>  4 0.20532825E+03</rscale>
<asrwt>0</asrwt>
<pdfrwt beam="1">  1       21 0.43962817E-01 0.20532825E+03</pdfrwt>
<pdfrwt beam="2">  1       21 0.51499830E-01 0.20532825E+03</pdfrwt>
<totfact> 0.17667849E+04</totfact>
</mgrwt>
</event>
<event>
 6      1 +2.5168323e+02 1.76876200e+02 7.54677100e-03 1.03924000e-01
       21 -1    0    0  504  502 +0.0000000000e+00 +0.0000000000e+00 +9.9496892732e+01 9.9496892732e+01 0.0000000000e+00 0.0000e+00 1.0000e+00
       21 -1    0    0  501  503 -0.0000000000e+00 -0.0000000000e+00 -8.6151359420e+02 8.6151359420e+02 0.0000000000e+00 0.0000e+00 1.0000e+00
        6  1    1    2  501    0 +4.8375361379e+01 +9.0164468837e+00 -6.1151200786e+02 6.3741462774e+02 1.7300000000e+02 0.0000e+00 1.0000e+00
       -6  1    1    2    0  505 +2.2248003616e+01 -2.1203204438e+01 -8.3000923198e+01 1.9432627922e+02 1.7300000000e+02 0.0000e+00 1.0000e+00
       21  1    1    2  504  503 -6.6891433315e+01 +4.1638465231e+01 -5.8858701793e+01 9.8349236980e+01 0.0000000000e+00 0.0000e+00 1.0000e+00
       21  1    1    2  505  502 -3.7319316795e+00 -2.9451707677e+01 -8.6450686158e+00 3.0920342988e+01 0.0000000000e+00 0.0000e+00 1.0000e+00
<mgrwt>
<rscale>  4 0.17687624E+03</rscale>
<asrwt>0</asrwt>
<pdfrwt beam="1">  1       21 0.15307214E-01 0.17687624E+03</pdfrwt>
<pdfrwt beam="2">  1       21 0.13254056E+00 0.17687624E+03</pdfrwt>
<totfact> 0.15731129E+04</totfact>
</mgrwt>
</event>
<event>
 6      1 +2.5168323e+02 2.71245800e+02 7.54677100e-03 1.07064900e-01
       21 -1    0    0  505  502 +0.0000000000e+00 +0.0000000000e+00 +4.7015528788e+02 4.7015528788e+02 0.0000000000e+00 0.0000e+00 -1.0000e+00
       21 -1    0    0  504  503 -0.0000000000e+00 -0.0000000000e+00 -1.1096314314e+03 1.1096314314e+03 0.0000000000e+00 0.0000e+00 1.0000e+00
        6  1    1    2  501    0 -1.7205912008e+02 -5.3371748815e+01 -3.8021785018e+02 4.5491482496e+02 1.7300000000e+02 0.0000e+00 1.0000e+00
       -6  1    1    2    0  503 +2.1794355538e+02 +8.0926034902e+01 -6.5964796836e+02 7.2049487064e+02 1.7300000000e+02 0.0000e+00 1.0000e+00
       21  1    1    2  504  502 -2.1497281521e+01 -1.4867168379e+01 +2.6078341392e+02 2.6208997460e+02 0.0000000000e+00 0.0000e+00 -1.0000e+00
       21  1    1    2  505  501 -2.4387153778e+01 -1.2687117707e+01 +1.3960626105e+02 1.4228704913e+02 0.0000000000e+00 0.0000e+00 -1.0000e+00
<mgrwt>
<rscale>  4 0.27124584E+03</rscale>
<asrwt>0</asrwt>
<pdfrwt beam="1">  1       21 0.72331583E-01 0.27124584E+03</pdfrwt>
<pdfrwt beam="2">  1       21 0.17071253E+00 0.27124584E+03</pdfrwt>
<totfact> 0.33516021E+02</totfact>
</mgrwt>
</event>
<event>
 6      1 +2.5168323e+02 3.39782900e+02 7.54677100e-03 1.17132900e-01
       21 -1    0    0  503  502 +0.0000000000e+00 +0.0000000000e+00 +7.8205864772e+02 7.8205864772e+02 0.0000000000e+00 0.0000e+00 -1.0000e+00
       21 -1    0    0  504  503 -0.0000000000e+00 -0.0000000000e+00 -6.4277082170e+02 6.4277082170e+02 0.0000000000e+00 0.0000e+00 1.0000e+00
        6  1    1    2  501    0 -1.5095375510e+02 -2.5288590430e+02 +8.3097413208e+01 3.5152879947e+02 1.7300000000e+02 0.0000e+00 -1.0000e+00
       -6  1    1    2    0  505 +1.7967373916e+02 +2.4426601189e+02 +2.7910847162e+02 4.4696652675e+02 1.7300000000e+02 0.0000e+00 1.0000e+00
       21  1    1    2  504  501 +1.1550934003e+00 +2.1407499574e+01 -4.2304402361e+02 4.2358689922e+02 0.0000000000e+00 0.0000e+00 1.0000e+00
       21  1    1    2  505  502 -2.9875077457e+01 -1.2787607157e+01 +2.0012596481e+02 2.0274724398e+02 0.0000000000e+00 0.0000e+00 1.0000e+00
<mgrwt>
<rscale>  4 0.33978285E+03</rscale>
<asrwt>0</asrwt>
<pdfrwt beam="1">  1       21 0.12031671E+00 0.33978285E+03</pdfrwt>
<pdfrwt beam="2">  1       21 0.98887819E-01 0.33978285E+03</pdfrwt>
<totfact> 0.38997804E+02</totfact>
</mgrwt>
</event>
<event>
 6      1 +2.5168323e+02 1.87346800e+02 7.54677100e-03 1.07064900e-01
       21 -1    0    0  501  502 +0.0000000000e+00 +0.0000000000e+00 +2.0333120148e+02 2.0333120148e+02 0.0000000000e+00 0.0000e+00 1.0000e+00
       21 -1    0    0  504  503 -0.0000000000e+00 -0.0000000000e+00 -3.7579832117e+02 3.7579832117e+02 0.0000000000e+00 0.0000e+00 1.0000e+00
        6  1    1    2  501    0 -2.7522691090e+01 -1.0516886467e+02 -6.8629447250e+01 2.1553883560e+02 1.7300000000e+02 0.0000e+00 1.0000e+00
       -6  1    1    2    0  503 +4.3591542560e+01 +3.7969442268e+01 -1.7912716082e+02 2.5565101383e+02 1.7300000000e+02 0.0000e+00 1.0000e+00
       21  1    1    2  504  505 -1.1749703456e+01 +4.0199413186e+01 +2.0331928651e+01 4.6555726549e+01 0.0000000000e+00 0.0000e+00 1.0000e+00
       21  1    1    2  505  502 -4.3191480133e+00 +2.7000009218e+01 +5.4957559732e+01 6.1383946672e+01 0.0000000000e+00 0.0000e+00 -1.0000e+00
<mgrwt>
<rscale>  4 0.18734682E+03</rscale>
<asrwt>0</asrwt>
<pdfrwt beam="1">  1       21 0.31281724E-01 0.18734682E+03</pdfrwt>
<pdfrwt beam="2">  1       21 0.57815126E-01 0.18734682E+03</pdfrwt>
<totfact> 0.27628625E+04</totfact>
</mgrwt>
</event>
<event>
 6      1 +2.5168323e+02 3.08701700e+02 7.54677100e-03 1.11910500e-01
       21 -1    0    0  501  502 +0.0000000000e+00 +0.0000000000e+00 +6.4053211722e+01 6.4053211722e+01 0.0000000000e+00 0.0000e+00 1.0000e+00
       21 -1    0    0  504  503 -0.0000000000e+00 -0.0000000000e+00 -2.3491186277e+03 2.3491186277e+03 0.0000000000e+00 0.0000e+00 -1.0000e+00
        6  1    1    2  501    0 -5.3037353338e+01 -5.8976447457e+01 -6.0507561016e+02 6.3430014679e+02 1.7300000000e+02 0.0000e+00 -1.0000e+00
       -6  1    1    2    0  503 +2.8272432855e+02 +2.9354478366e+01 -8.5079931592e+02 9.1355525685e+02 1.7300000000e+02 0.0000e+00 1.0000e+00
       21  1    1    2  504  505 -5.7316207646e+01 -2.3324006547e+01 -1.4270630758e+02 1.5554500045e+02 0.0000000000e+00 0.0000e+00 -1.0000e+00
       21  1    1    2  505  502 -1.7237076756e+02 +5.2945975638e+01 -6.8648418227e+02 7.0977143529e+02 0.0000000000e+00 0.0000e+00 -1.0000e+00
<mgrwt>
<rscale>  4 0.27354143E+03</rscale>
<asrwt>0</asrwt>
<pdfrwt beam="1">  1       21 0.98543404E-02 0.30870172E+03</pdfrwt>
<pdfrwt beam="2">  1       21 0.36140286E+00 0.30870172E+03</pdfrwt>
<totfact> 0.10922395E+03</totfact>
</mgrwt>
</event>
<event>
 6      1 +2.5168323e+02 2.21347300e+02 7.54677100e-03 1.07240600e-01
       21 -1    0    0  505  502 +0.0000000000e+00 +0.0000000000e+00 +2.8768728467e+02 2.8768728467e+02 0.0000000000e+00 0.0000e+00 1.0000e+00
       21 -1    0    0  504  503 -0.0000000000e+00 -0.0000000000e+00 -4.1889221233e+02 4.1889221233e+02 0.0000000000e+00 0.0000e+00 1.0000e+00
        6  1    1    2  501    0 -8.5554650554e+01 +1.1211770916e+02 -2.0839486266e+02 3.0536436878e+02 1.7300000000e+02 0.0000e+00 1.0000e+00
       -6  1    1    2    0  502 +5.6006382530e+01 -1.2626354085e+02 +1.7992531272e+02 2.8527410466e+02 1.7300000000e+02 0.0000e+00 1.0000e+00
       21  1    1    2  504  501 +2.2979234674e+01 -1.2565259235e+01 -5.2363339096e+01 5.8547845794e+01 0.0000000000e+00 0.0000e+00 1.0000e+00
       21  1    1    2  505  503 +6.5690333497e+00 +2.6711090928e+01 -5.0372038628e+01 5.7393177758e+01 0.0000000000e+00 0.0000e+00 -1.0000e+00
<mgrwt>
<rscale>  4 0.22134728E+03</rscale>
<asrwt>0</asrwt>
<pdfrwt beam="1">  1       21 0.44259582E-01 0.22134728E+03</pdfrwt>
<pdfrwt beam="2">  1       21 0.64444956E-01 0.22134728E+03</pdfrwt>
<totfact> 0.10683132E+04</totfact>
</mgrwt>
</event>
<event>
 6      1 +2.5168323e+02 1.75317600e+02 7.54677100e-03 1.07064900e-01
       21 -1    0    0  501  502 +0.0000000000e+00 +0.0000000000e+00 +2.4239303882e+02 2.4239303882e+02 0.0000000000e+00 0.0000e+00 -1.0000e+00
       21 -1    0    0  504  503 -0.0000000000e+00 -0.0000000000e+00 -2.4050030927e+03 2.4050030927e+03 0.0000000000e+00 0.0000e+00 -1.0000e+00
        6  1    1    2  501    0 +9.9216359650e+01 +8.0930400034e+01 +1.2806565359e+02 2.5044645595e+02 1.7300000000e+02 0.0000e+00 -1.0000e+00
       -6  1    1    2    0  503 -1.5577770958e+01 -2.1584197467e+01 -2.1541194336e+03 2.1612191186e+03 1.7300000000e+02 0.0000e+00 -1.0000e+00
       21  1    1    2  504  505 -1.1901741299e+02 -4.2119906998e+01 -1.4820825508e+02 1.9469185405e+02 0.0000000000e+00 0.0000e+00 -1.0000e+00
       21  1    1    2  505  502 +3.5378824296e+01 -1.7226295569e+01 +1.1651981217e+01 4.1038702878e+01 0.0000000000e+00 0.0000e+00 1.0000e+00
<mgrwt>
<rscale>  4 0.17531758E+03</rscale>
<asrwt>0</asrwt>
<pdfrwt beam="1">  1       21 0.37291238E-01 0.17531758E+03</pdfrwt>
<pdfrwt beam="2">  1       21 0.37000046E+00 0.17531758E+03</pdfrwt>
<totfact> 0.95266693E+01</totfact>
</mgrwt>
</event>
<event>
 6      1 +2.5168323e+02 1.75584500e+02 7.54677100e-03 1.17132900e-01
       21 -1    0    0  503  502 +0.0000000000e+00 +0.0000000000e+00 +8.8042206052e+02 8.8042206052e+02 0.0000000000e+00 0.0000e+00 1.0000e+00
       21 -1    0    0  504  503 -0.0000000000e+00 -0.0000000000e+00 -2.8714722503e+02 2.8714722503e+02 0.0000000000e+00 0.0000e+00 1.0000e+00
        6  1    1    2  501    0 -2.0811229755e+01 +7.7440666848e+00 +1.3646045797e+02 2.2145774866e+02 1.7300000000e+02 0.0000e+00 -1.0000e+00
       -6  1    1    2    0  505 -1.1104423146e+01 -2.6504703376e+01 +6.1988369865e+02 6.4421316919e+02 1.7300000000e+02 0.0000e+00 1.0000e+00
       21  1    1    2  504  501 +6.4385411996e-01 +2.9216889485e+01 -2.2758025914e+02 2.2944893882e+02 0.0000000000e+00 0.0000e+00 1.0000e+00
       21  1    1    2  505  502 +3.1271798781e+01 -1.0456252793e+01 +6.4510938003e+01 7.2449428869e+01 0.0000000000e+00 0.0000e+00 1.0000e+00
<mgrwt>
<rscale>  4 0.17558450E+03</rscale>
<asrwt>0</asrwt>
<pdfrwt beam="1">  1       21 0.13544955E+00 0.17558450E+03</pdfrwt>
<pdfrwt beam="2">  1       21 0.44176496E-01 0.17558450E+03</pdfrwt>
<totfact> 0.19493870E+03</totfact>
</mgrwt>
</event>
<event>
 6      1 +2.5168323e+02 2.44286500e+02 7.54677100e-03 1.03924000e-01
       21 -1    0    0  504  502 +0.0000000000e+00 +0.0000000000e+00 +3.6332864163e+02 3.6332864163e+02 0.0000000000e+00 0.0000e+00 -1.0000e+00
       21 -1    0    0  501  503 -0.0000000000e+00 -0.0000000000e+00 -7.7783606454e+02 7.7783606454e+02 0.0000000000e+00 0.0000e+00 -1.0000e+00
        6  1    1    2  501    0 +2.3014289498e+02 +1.4049686894e+02 -4.0789779681e+02 5.1866630403e+02 1.7300000000e+02 0.0000e+00 -1.0000e+00
       -6  1    1    2    0  505 -3.2278742726e+01 -1.1806653972e+02 -2.3526035377e+02 3.1663553036e+02 1.7300000000e+02 0.0000e+00 -1.0000e+00
       21  1    1    2  504  503 -1.3332245455e+02 -2.3165527653e+01 +1.7919061000e+02 2.2454574872e+02 0.0000000000e+00 0.0000e+00 -1.0000e+00
       21  1    1    2  505  502 -6.4541697711e+01 +7.3519843386e-01 +4.9460117677e+01 8.1317123048e+01 0.0000000000e+00 0.0000e+00 -1.0000e+00
<mgrwt>
<rscale>  4 0.24428647E+03</rscale>
<asrwt>0</asrwt>
<pdfrwt beam="1">  1       21 0.55896714E-01 0.24428647E+03</pdfrwt>
<pdfrwt beam="2">  1       21 0.11966709E+00 0.24428647E+03</pdfrwt>
<totfact> 0.15324191E+03</totfact>
</mgrwt>
</event>
<event>
 6      1 +2.5168323e+02 3.26467100e+02 7.54677100e-03 1.17132900e-01
       21 -1    0    0  503  502 +0.0000000000e+00 +0.0000000000e+00 +3.1881757596e+02 3.1881757596e+02 0.0000000000e+00 0.0000e+00 -1.0000e+00
       21 -1    0    0  504  503 -0.0000000000e+00 -0.0000000000e+00 -8.0504153760e+02 8.0504153760e+02 0.0000000000e+00 0.0000e+00 1.0000e+00
        6  1    1    2  501    0 +1.6066534068e+01 +2.4146619476e+02 +6.7990608425e+01 3.0514878267e+02 1.7300000000e+02 0.0000e+00 -1.0000e+00
       -6  1    1    2    0  505 +3.1883966143e+01 -3.2399255710e+02 -4.6204557931e+02 5.9110310583e+02 1.7300000000e+02 0.0000e+00 1.0000e+00
       21  1    1    2  504  501 +1.7895767330e+01 +5.2853916322e+01 -1.3328924131e+02 1.4449850106e+02 0.0000000000e+00 0.0000e+00 1.0000e+00
       21  1    1    2  505  502 -6.5846267540e+01 +2.9672446021e+01 +4.1120250550e+01 8.3108724014e+01 0.0000000000e+00 0.0000e+00 1.0000e+00
<mgrwt>
<rscale>  4 0.32646712E+03</rscale>
<asrwt>0</asrwt>
<pdfrwt beam="1">  1       21 0.49048859E-01 0.32646712E+03</pdfrwt>
<pdfrwt beam="2">  1       21 0.12385254E+00 0.32646712E+03</pdfrwt>
<totfact> 0.17571108E+03</totfact>
</mgrwt>
</event>
<event>
 6      1 +2.5168323e+02 1.90765300e+02 7.54677100e-03 1.03924000e-01
       21 -1    0    0  504  502 +0.0000000000e+00 +0.0000000000e+00 +1.6119008970e+03 1.6119008970e+03 0.0000000000e+00 0.0000e+00 -1.0000e+00
       21 -1    0    0  501  503 -0.0000000000e+00 -0.0000000000e+00 -7.6069041474e+01 7.6069041474e+01 0.0000000000e+00 0.0000e+00 -1.0000e+00
        6  1    1    2  501    0 -9.6459070678e+01 +5.9772160040e+01 +1.7352388170e+02 2.7003074075e+02 1.7300000000e+02 0.0000e+00 1.0000e+00
       -6  1    1    2    0  505 +3.0984519327e+01 -1.7754451752e+01 +2.7353710805e+02 3.2561758318e+02 1.7300000000e+02 0.0000e+00 -1.0000e+00
       21  1    1    2  504  503 +2.0656824164e+01 -4.2963036173e+00 +1.2467214312e+02 1.2644487288e+02 0.0000000000e+00 0.0000e+00 -1.0000e+00
       21  1    1    2  505  502 +4.4817727186e+01 -3.7721404670e+01 +9.6409872271e+02 9.6587674170e+02 0.0000000000e+00 0.0000e+00 -1.0000e+00
<mgrwt>
<rscale>  4 0.19076531E+03</rscale>
<asrwt>0</asrwt>
<pdfrwt beam="1">  1       21 0.24798473E+00 0.19076531E+03</pdfrwt>
<pdfrwt beam="2">  1       21 0.11702931E-01 0.19076531E+03</pdfrwt>
<totfact> 0.42022670E+03</totfact>
</mgrwt>
</event>
<event>
 6      1 +2.5168323e+02 2.21254600e+02 7.54677100e-03 1.04003000e-01
       21 -1    0    0  504  502 +0.0000000000e+00 +0.0000000000e+00 +7.1461071105e+02 7.1461071105e+02 0.0000000000e+00 0.0000e+00 -1.0000e+00
       21 -1    0    0  505  503 -0.0000000000e+00 -0.0000000000e+00 -2.4521564339e+02 2.4521564339e+02 0.0000000000e+00 0.0000e+00 1.0000e+00
        6  1    1    2  501    0 +1.0241808303e+02 +9.6531733832e+01 +4.8282313379e+02 5.3184115851e+02 1.7300000000e+02 0.0000e+00 -1.0000e+00
       -6  1    1    2    0  503 -1.6012510277e+02 +3.9652017062e+00 -6.6187020967e+01 2.4487852724e+02 1.7300000000e+02 0.0000e+00 1.0000e+00
       21  1    1    2  504  501 -2.1479917169e+01 -9.2789454248e+01 +2.1601358027e+01 9.7662113073e+01 0.0000000000e+00 0.0000e+00 1.0000e+00
       21  1    1    2  505  502 +7.9186936906e+01 -7.7074812898e+00 +3.1157596809e+01 8.5444555609e+01 0.0000000000e+00 0.0000e+00 1.0000e+00
<mgrwt>
<rscale>  4 0.22125461E+03</rscale>
<asrwt>0</asrwt>
<pdfrwt beam="1">  1       21 0.10994011E+00 0.22125461E+03</pdfrwt>
<pdfrwt beam="2">  1       21 0.37725484E-01 0.22125461E+03</pdfrwt>
<totfact> 0.43330594E+03</totfact>
</mgrwt>
</event>
<event>
 6      1 +2.5168323e+02 1.76670500e+02 7.54677100e-03 1.16820100e-01
       21 -1    0    0  505  502 +0.0000000000e+00 +0.0000000000e+00 +2.3090408644e+02 2.3090408644e+02 0.0000000000e+00 0.0000e+00 1.0000e+00
       21 -1    0    0  504  503 -0.0000000000e+00 -0.0000000000e+00 -2.1746108679e+02 2.1746108679e+02 0.0000000000e+00 0.0000e+00 1.0000e+00
        6  1    1    2  501    0 +1.3273791245e+01 -3.2816570128e+01 -4.2306657935e+00 1.7663527208e+02 1.7300000000e+02 0.0000e+00 1.0000e+00
       -6  1    1    2    0  503 -2.8799452833e+01 +3.1017094512e+01 +3.6947876230e+01 1.8189451392e+02 1.7300000000e+02 0.0000e+00 1.0000e+00
       21  1    1    2  504  502 +4.0953539137e+00 +2.2377639756e+01 -4.7748462624e+01 5.2890891160e+01 0.0000000000e+00 0.0000e+00 -1.0000e+00
       21  1    1    2  505  501 +1.1430307675e+01 -2.0578164140e+01 +2.8474251832e+01 3.6944496076e+01 0.0000000000e+00 0.0000e+00 1.0000e+00
<mgrwt>
<rscale>  4 0.17667054E+03</rscale>
<asrwt>0</asrwt>
<pdfrwt beam="1">  1       21 0.35523705E-01 0.17667054E+03</pdfrwt>
<pdfrwt beam="2">  1       21 0.33455552E-01 0.17667054E+03</pdfrwt>
<totfact> 0.66203021E+04</totfact>
</mgrwt>
</event>
<event>
 6      1 +2.5168323e+02 1.90610400e+02 7.54677100e-03 1.17132900e-01
       21 -1    0    0  505  502 +0.0000000000e+00 +0.0000000000e+00 +1.5752881138e+03 1.5752881138e+03 0.0000000000e+00 0.0000e+00 -1.0000e+00
       21 -1    0    0  504  503 -0.0000000000e+00 -0.0000000000e+00 -3.1717717983e+01 3.1717717983e+01 0.0000000000e+00 0.0000e+00 -1.0000e+00
        6  1    1    2  501    0 +4.7165901584e+00 -8.5978706928e+01 +5.2582198294e+02 5.6020740981e+02 1.7300000000e+02 0.0000e+00 -1.0000e+00
       -6  1    1    2    0  502 -8.2894767707e+00 +8.2520290043e+01 +9.0333474327e+02 9.2348306540e+02 1.7300000000e+02 0.0000e+00 -1.0000e+00
       21  1    1    2  504  501 -1.0442473385e+01 +1.8574738352e+01 +3.2613321125e+01 3.8957603495e+01 0.0000000000e+00 0.0000e+00 -1.0000e+00
       21  1    1    2  505  503 +1.4015359998e+01 -1.5116321467e+01 +8.1800348452e+01 8.4357753037e+01 0.0000000000e+00 0.0000e+00 -1.0000e+00
<mgrwt>
<rscale>  4 0.19061035E+03</rscale>
<asrwt>0</asrwt>
<pdfrwt beam="1">  1       21 0.24235196E+00 0.19061035E+03</pdfrwt>
<pdfrwt beam="2">  1       21 0.48796502E-02 0.19061035E+03</pdfrwt>
<totfact> 0.20717939E+04</totfact>
</mgrwt>
</event>
<event>
 6      1 +2.5168323e+02 2.39428200e+02 7.54677100e-03 1.16820100e-01
       21 -1    0    0  504  502 +0.0000000000e+00 +0.0000000000e+00 +1.8017183554e+03 1.8017183554e+03 0.0000000000e+00 0.0000e+00 -1.0000e+00
       21 -1    0    0  501  503 -0.0000000000e+00 -0.0000000000e+00 -2.1414604154e+02 2.1414604154e+02 0.0000000000e+00 0.0000e+00 1.0000e+00
        6  1    1    2  501    0 -1.8585654533e+01 +1.5178784234e+02 +7.1235970984e+02 7.4884600008e+02 1.7300000000e+02 0.0000e+00 -1.0000e+00
       -6  1    1    2    0  505 +1.1185826219e+01 -1.7467454315e+02 +9.3852008642e+02 9.7025010762e+02 1.7300000000e+02 0.0000e+00 -1.0000e+00
       21  1    1    2  504  503 +6.3711675153e+00 +4.7443031261e+01 -1.7550206165e+02 1.8191318434e+02 0.0000000000e+00 0.0000e+00 1.0000e+00
       21  1    1    2  505  502 +1.0286607993e+00 -2.4556330449e+01 +1.1219457928e+02 1.1485510493e+02 0.0000000000e+00 0.0000e+00 -1.0000e+00
<mgrwt>
<rscale>  4 0.23942823E+03</rscale>
<asrwt>0</asrwt>
<pdfrwt beam="1">  1       21 0.27718743E+00 0.23942823E+03</pdfrwt>
<pdfrwt beam="2">  1       21 0.32945546E-01 0.23942823E+03</pdfrwt>
<totfact> 0.38590795E+02</totfact>
</mgrwt>
</event>
<event>
 6      1 +2.5168323e+02 1.94857600e+02 7.54677100e-03 1.12068800e-01
       21 -1    0    0  504  502 +0.0000000000e+00 +0.0000000000e+00 +1.1924506245e+02 1.1924506245e+02 0.0000000000e+00 0.0000e+00 1.0000e+00
       21 -1    0    0  502  503 -0.0000000000e+00 -0.0000000000e+00 -1.0826080460e+03 1.0826080460e+03 0.0000000000e+00 0.0000e+00 1.0000e+00
        6  1    1    2  501    0 +1.0727144318e+02 -2.0210851977e+01 -4.2597696904e+01 2.0894785197e+02 1.7300000000e+02 0.0000e+00 1.0000e+00
       -6  1    1    2    0  505 -3.1696475557e+01 +5.5577004055e+01 -2.5500414867e+02 3.1472144156e+02 1.7300000000e+02 0.0000e+00 1.0000e+00
       21  1    1    2  504  501 -5.3677240185e+01 -6.8982814213e+01 -5.0390599310e+02 5.1143046903e+02 0.0000000000e+00 0.0000e+00 1.0000e+00
       21  1    1    2  505  503 -2.1897727443e+01 +3.3616662136e+01 -1.6185514493e+02 1.6675334593e+02 0.0000000000e+00 0.0000e+00 -1.0000e+00
<mgrwt>
<rscale>  4 0.19485758E+03</rscale>
<asrwt>0</asrwt>
<pdfrwt beam="1">  1       21 0.18345395E-01 0.19485758E+03</pdfrwt>
<pdfrwt beam="2">  1       21 0.16655508E+00 0.19485758E+03</pdfrwt>
<totfact> 0.61065014E+03</totfact>
</mgrwt>
</event>
<event>
 6      1 +2.5168323e+02 4.18897800e+02 7.54677100e-03 1.11671100e-01
       21 -1    0    0  503  502 +0.0000000000e+00 +0.0000000000e+00 +1.1531535768e+03 1.1531535768e+03 0.0000000000e+00 0.0000e+00 -1.0000e+00
       21 -1    0    0  501  503 -0.0000000000e+00 -0.0000000000e+00 -5.3822992021e+02 5.3822992021e+02 0.0000000000e+00 0.0000e+00 1.0000e+00
        6  1    1    2  501    0 -2.2100494110e+02 +1.9055391158e+02 +3.3785224623e+02 4.7877668854e+02 1.7300000000e+02 0.0000e+00 -1.0000e+00
       -6  1    1    2    0  504 +2.8081747209e+02 -3.7868636897e+02 -3.0980069316e+01 5.0314071925e+02 1.7300000000e+02 0.0000e+00 1.0000e+00
       21  1    1    2  504  505 +6.3081977312e+01 +1.4750095391e+02 -1.5836487916e+02 2.2542249714e+02 0.0000000000e+00 0.0000e+00 1.0000e+00
       21  1    1    2  505  502 -1.2289450830e+02 +4.0631503474e+01 +4.6641635887e+02 4.8404359211e+02 0.0000000000e+00 0.0000e+00 -1.0000e+00
<mgrwt>
<rscale>  4 0.41889782E+03</rscale>
<asrwt>0</asrwt>
<pdfrwt beam="1">  1       21 0.17740824E+00 0.41889782E+03</pdfrwt>
<pdfrwt beam="2">  1       21 0.82804604E-01 0.41889782E+03</pdfrwt>
<totfact> 0.19913721E+02</totfact>
</mgrwt>
</event>
<event>
 6      1 +2.5168323e+02 2.16124600e+02 7.54677100e-03 1.17132900e-01
       21 -1    0    0  505  502 +0.0000000000e+00 +0.0000000000e+00 +3.4689991826e+02 3.4689991826e+02 0.0000000000e+00 0.0000e+00 -1.0000e+00
       21 -1    0    0  504  503 -0.0000000000e+00 -0.0000000000e+00 -2.3689861220e+02 2.3689861220e+02 0.0000000000e+00 0.0000e+00 -1.0000e+00
        6  1    1    2  501    0 -3.3787739416e+01 +1.3943988705e+02 +9.9942071888e+00 2.2497550447e+02 1.7300000000e+02 0.0000e+00 1.0000e+00
       -6  1    1    2    0  502 +1.1272446001e+02 -7.4182961841e+01 +4.0183603992e+01 2.2305523473e+02 1.7300000000e+02 0.0000e+00 1.0000e+00
       21  1    1    2  504  501 -5.8220472446e+01 -4.3921224737e+01 +4.6345310532e+00 7.3076509716e+01 0.0000000000e+00 0.0000e+00 -1.0000e+00
       21  1    1    2  505  503 -2.0716248144e+01 -2.1335700474e+01 +5.5188963834e+01 6.2691281538e+01 0.0000000000e+00 0.0000e+00 -1.0000e+00
<mgrwt>
<rscale>  4 0.21612456E+03</rscale>
<asrwt>0</asrwt>
<pdfrwt beam="1">  1       21 0.53369218E-01 0.21612456E+03</pdfrwt>
<pdfrwt beam="2">  1       21 0.36445940E-01 0.21612456E+03</pdfrwt>
<totfact> 0.23812934E+04</totfact>
</mgrwt>
</event>
<event>
 6      1 +2.5168323e+02 1.84715200e+02 7.54677100e-03 1.07064900e-01
       21 -1    0    0  504  502 +0.0000000000e+00 +0.0000000000e+00 +3.7057104448e+02 3.7057104448e+02 0.0000000000e+00 0.0000e+00 1.0000e+00
       21 -1    0    0  501  503 -0.0000000000e+00 -0.0000000000e+00 -2.0461794167e+02 2.0461794167e+02 0.0000000000e+00 0.0000e+00 -1.0000e+00
        6  1    1    2  501    0 +6.1608963388e+01 +8.7438187315e+01 +1.0443220600e+02 2.2863986228e+02 1.7300000000e+02 0.0000e+00 1.0000e+00
       -6  1    1    2    0  505 -5.1241786623e+01 -1.5808267573e+01 -6.6040449407e+01 1.9278475816e+02 1.7300000000e+02 0.0000e+00 -1.0000e+00
       21  1    1    2  504  503 -2.6736464012e+01 -5.3808084777e+01 +1.0326601086e+02 1.1947391972e+02 0.0000000000e+00 0.0000e+00 1.0000e+00
       21  1    1    2  505  502 +1.6369287248e+01 -1.7821834966e+01 +2.4295335354e+01 3.4290445995e+01 0.0000000000e+00 0.0000e+00 -1.0000e+00
<mgrwt>
<rscale>  4 0.18471524E+03</rscale>
<asrwt>0</asrwt>
<pdfrwt beam="1">  1       21 0.57010930E-01 0.18471524E+03</pdfrwt>
<pdfrwt beam="2">  1       21 0.31479683E-01 0.18471524E+03</pdfrwt>
<totfact> 0.28156282E+04</totfact>
</mgrwt>
</event>
<event>
 6      1 +2.5168323e+02 1.91478300e+02 7.54677100e-03 1.11910500e-01
       21 -1    0    0  501  502 +0.0000000000e+00 +0.0000000000e+00 +6.6222131048e+01 6.6222131048e+01 0.0000000000e+00 0.0000e+00 1.0000e+00
       21 -1    0    0  504  503 -0.0000000000e+00 -0.0000000000e+00 -1.1079758026e+03 1.1079758026e+03 0.0000000000e+00 0.0000e+00 1.0000e+00
        6  1    1    2  501    0 -5.6620986109e+01 +1.8441735765e+01 -5.8589018164e+02 6.1379340061e+02 1.7300000000e+02 0.0000e+00 1.0000e+00
       -6  1    1    2    0  503 +8.9787774877e+01 +1.6419788016e+01 -1.4458558706e+02 2.4323948269e+02 1.7300000000e+02 0.0000e+00 1.0000e+00
       21  1    1    2  504  505 -3.4489215210e+01 -1.2518359180e+01 -2.2792732417e+02 2.3086160440e+02 0.0000000000e+00 0.0000e+00 1.0000e+00
       21  1    1    2  505  502 +1.3224264416e+00 -2.2343164601e+01 -8.3350578709e+01 8.6303445975e+01 0.0000000000e+00 0.0000e+00 -1.0000e+00
<mgrwt>
<rscale>  4 0.19147828E+03</rscale>
<asrwt>0</asrwt>
<pdfrwt beam="1">  1       21 0.10188021E-01 0.19147828E+03</pdfrwt>
<pdfrwt beam="2">  1       21 0.17045780E+00 0.19147828E+03</pdfrwt>
<totfact> 0.16644927E+04</totfact>
</mgrwt>
</event>
<event>
 6      1 +2.5168323e+02 2.62095800e+02 7.54677100e-03 1.07064900e-01
       21 -1    0    0  501  502 +0.0000000000e+00 +0.0000000000e+00 +3.4880045610e+02 3.4880045610e+02 0.0000000000e+00 0.0000e+00 1.0000e+00
       21 -1    0    0  504  503 -0.0000000000e+00 -0.0000000000e+00 -9.0652277437e+02 9.0652277437e+02 0.0000000000e+00 0.0000e+00 -1.0000e+00
        6  1    1    2  501    0 +1.9010309552e+02 -4.0739192982e+01 -3.0500735407e+02 4.0094557587e+02 1.7300000000e+02 0.0000e+00 1.0000e+00
       -6  1    1    2    0  503 +1.9056611873e+01 +8.9447076886e+01 -4.1429187237e+02 4.5818193934e+02 1.7300000000e+02 0.0000e+00 -1.0000e+00
       21  1    1    2  504  505 -1.6516302551e+02 -1.3505312566e+02 +6.6461013821e+00 2.1345337292e+02 0.0000000000e+00 0.0000e+00 1.0000e+00
       21  1    1    2  505  502 -4.3996681879e+01 +8.6345241753e+01 +1.5493080680e+02 1.8274234234e+02 0.0000000000e+00 0.0000e+00 1.0000e+00
<mgrwt>
<rscale>  4 0.24504957E+03</rscale>
<asrwt>0</asrwt>
<pdfrwt beam="1">  1       21 0.53661609E-01 0.26209583E+03</pdfrwt>
<pdfrwt beam="2">  1       21 0.13946504E+00 0.26209583E+03</pdfrwt>
<totfact> 0.11165852E+03</totfact>
</mgrwt>
</event>
<event>
 6      1 +2.5168323e+02 2.32687900e+02 7.54677100e-03 1.15942100e-01
       21 -1    0    0  504  502 +0.0000000000e+00 +0.0000000000e+00 +1.6616385016e+02 1.6616385016e+02 0.0000000000e+00 0.0000e+00 1.0000e+00
       21 -1    0    0  501  503 -0.0000000000e+00 -0.0000000000e+00 -1.8460530233e+03 1.8460530233e+03 0.0000000000e+00 0.0000e+00 1.0000e+00
        6  1    1    2  501    0 -1.4791420563e+02 +4.6163369802e+01 -1.3451011863e+02 2.6838711025e+02 1.7300000000e+02 0.0000e+00 1.0000e+00
       -6  1    1    2    0  502 +1.6081511442e+02 +2.1020243707e+01 -4.4739595037e+01 2.4131718346e+02 1.7300000000e+02 0.0000e+00 1.0000e+00
       21  1    1    2  504  505 -2.1320617967e+01 -4.1132504525e+01 -8.0220402803e+02 8.0354076080e+02 0.0000000000e+00 0.0000e+00 1.0000e+00
       21  1    1    2  505  503 +8.4197091732e+00 -2.6051108984e+01 -6.9843543144e+02 6.9897181894e+02 0.0000000000e+00 0.0000e+00 1.0000e+00
<mgrwt>
<rscale>  4 0.23268785E+03</rscale>
<asrwt>0</asrwt>
<pdfrwt beam="1">  1       21 0.25563667E-01 0.23268785E+03</pdfrwt>
<pdfrwt beam="2">  1       21 0.28400818E+00 0.23268785E+03</pdfrwt>
<totfact> 0.58204649E+02</totfact>
</mgrwt>
</event>
<event>
 6      1 +2.5168323e+02 1.89335900e+02 7.54677100e-03 1.11910500e-01
       21 -1    0    0  501  502 +0.0000000000e+00 +0.0000000000e+00 +1.3256602387e+03 1.3256602387e+03 0.0000000000e+00 0.0000e+00 -1.0000e+00
       21 -1    0    0  504  503 -0.0000000000e+00 -0.0000000000e+00 -4.8647394628e+01 4.8647394628e+01 0.0000000000e+00 0.0000e+00 1.0000e+00
        6  1    1    2  501    0 -1.0378791338e+02 -2.5655224250e+01 +7.5183386263e+02 7.7885382357e+02 1.7300000000e+02 0.0000e+00 -1.0000e+00
       -6  1    1    2    0  503 +4.1901778261e+01 -1.7223486117e+01 +4.4549318078e+02 4.8004747851e+02 1.7300000000e+02 0.0000e+00 -1.0000e+00
       21  1    1    2  504  505 +2.0269136255e+01 -1.5086681919e+00 +9.2564452396e+00 2.2333735530e+01 0.0000000000e+00 0.0000e+00 1.0000e+00
       21  1    1    2  505  502 +4.1616998867e+01 +4.4387378559e+01 +7.0429355432e+01 9.3072595733e+01 0.0000000000e+00 0.0000e+00 -1.0000e+00
<mgrwt>
<rscale>  4 0.18933594E+03</rscale>
<asrwt>0</asrwt>
<pdfrwt beam="1">  1       21 0.20394770E+00 0.18933594E+03</pdfrwt>
<pdfrwt beam="2">  1       21 0.74842156E-02 0.18933594E+03</pdfrwt>
<totfact> 0.17115093E+04</totfact>
</mgrwt>
</event>
<event>
 6      1 +2.5168323e+02 2.86272400e+02 7.54677100e-03 1.17132900e-01
       21 -1    0    0  505  502 +0.0000000000e+00 +0.0000000000e+00 +1.1218347742e+03 1.1218347742e+03 0.0000000000e+00 0.0000e+00 -1.0000e+00
       21 -1    0    0  504  503 -0.0000000000e+00 -0.0000000000e+00 -2.9678783638e+02 2.9678783638e+02 0.0000000000e+00 0.0000e+00 1.0000e+00
        6  1    1    2  501    0 +1.5587181478e+02 -1.4775429326e+02 +2.1673116194e+01 2.7663347192e+02 1.7300000000e+02 0.0000e+00 -1.0000e+00
       -6  1    1    2    0  502 -3.0532689042e+02 +6.8850127715e+01 +3.2637073384e+02 4.8416082659e+02 1.7300000000e+02 0.0000e+00 1.0000e+00
       21  1    1    2  504  501 -2.0781809538e+01 -7.2659436059e+00 -7.2695938509e+01 7.5956415265e+01 0.0000000000e+00 0.0000e+00 1.0000e+00
       21  1    1    2  505  503 +1.7023688518e+02 +8.6170109154e+01 +5.4969902627e+02 5.8187189679e+02 0.0000000000e+00 0.0000e+00 -1.0000e+00
<mgrwt>
<rscale>  4 0.28627236E+03</rscale>
<asrwt>0</asrwt>
<pdfrwt beam="1">  1       21 0.17258996E+00 0.28627236E+03</pdfrwt>
<pdfrwt beam="2">  1       21 0.45659667E-01 0.28627236E+03</pdfrwt>
<totfact> 0.86483409E+02</totfact>
</mgrwt>
</event>
<event>
 6      1 +2.5168323e+02 1.88032500e+02 7.54677100e-03 1.16820100e-01
       21 -1    0    0  501  502 +0.0000000000e+00 +0.0000000000e+00 +6.8405396130e+02 6.8405396130e+02 0.0000000000e+00 0.0000e+00 1.0000e+00
       21 -1    0    0  504  503 -0.0000000000e+00 -0.0000000000e+00 -2.5721097164e+02 2.5721097164e+02 0.0000000000e+00 0.0000e+00 1.0000e+00
        6  1    1    2  501    0 -4.9950554150e+01 +6.8407363428e+01 +5.0291427407e+01 1.9908001633e+02 1.7300000000e+02 0.0000e+00 -1.0000e+00
       -6  1    1    2    0  503 +9.6082993525e+01 +5.5372491535e+01 +3.2894711213e+01 2.0810842484e+02 1.7300000000e+02 0.0000e+00 1.0000e+00
       21  1    1    2  504  505 +1.7226816101e+01 +2.2096296955e+01 -7.8289456214e+01 8.3151960208e+01 0.0000000000e+00 0.0000e+00 -1.0000e+00
       21  1    1    2  505  502 -6.3359255476e+01 -1.4587615192e+02 +4.2194630726e+02 4.5092453156e+02 0.0000000000e+00 0.0000e+00 1.0000e+00
<mgrwt>
<rscale>  4 0.18803247E+03</rscale>
<asrwt>0</asrwt>
<pdfrwt beam="1">  1       21 0.10523907E+00 0.18803247E+03</pdfrwt>
<pdfrwt beam="2">  1       21 0.39570919E-01 0.18803247E+03</pdfrwt>
<totfact> 0.44901552E+03</totfact>
</mgrwt>
</event>
<event>
 6      1 +2.5168323e+02 1.93556800e+02 7.54677100e-03 1.13071300e-01
       21 -1    0    0  503  502 +0.0000000000e+00 +0.0000000000e+00 +2.7496050142e+02 2.7496050142e+02 0.0000000000e+00 0.0000e+00 -1.0000e+00
       21 -1    0    0  504  503 -0.0000000000e+00 -0.0000000000e+00 -2.0124599039e+02 2.0124599039e+02 0.0000000000e+00 0.0000e+00 -1.0000e+00
        6  1    1    2  501    0 -3.5296603421e+01 +8.4925573796e+01 -7.2404114462e+00 1.9606026333e+02 1.7300000000e+02 0.0000e+00 -1.0000e+00
       -6  1    1    2    0  502 +7.7749178602e+01 -4.6605409457e+01 +8.5835293057e+01 2.1333939275e+02 1.7300000000e+02 0.0000e+00 -1.0000e+00
       21  1    1    2  504  505 -1.9915497818e+01 -3.8897945247e+01 -6.6062988786e+00 4.4196384271e+01 0.0000000000e+00 0.0000e+00 -1.0000e+00
       21  1    1    2  505  501 -2.2537077363e+01 +5.7778090793e-01 +1.7259283039e+00 2.2610451463e+01 0.0000000000e+00 0.0000e+00 -1.0000e+00
<mgrwt>
<rscale>  4 0.19355679E+03</rscale>
<asrwt>0</asrwt>
<pdfrwt beam="1">  1       21 0.42301616E-01 0.19355679E+03</pdfrwt>
<pdfrwt beam="2">  1       21 0.30960922E-01 0.19355679E+03</pdfrwt>
<totfact> 0.53861615E+04</totfact>
</mgrwt>
</event>
<event>
 6      1 +2.5168323e+02 2.09438500e+02 7.54677100e-03 1.15942100e-01
       21 -1    0    0  503  502 +0.0000000000e+00 +0.0000000000e+00 +1.7162023395e+03 1.7162023395e+03 0.0000000000e+00 0.0000e+00 -1.0000e+00
       21 -1    0    0  501  503 -0.0000000000e+00 -0.0000000000e+00 -6.7174589665e+01 6.7174589665e+01 0.0000000000e+00 0.0000e+00 -1.0000e+00
        6  1    1    2  501    0 -1.2325349677e+02 +9.5197880502e+01 +1.1344230312e+03 1.1580581482e+03 1.7300000000e+02 0.0000e+00 -1.0000e+00
       -6  1    1    2    0  505 +5.5013041837e+01 -3.4957385943e+01 +4.9673410715e+02 5.3002096828e+02 1.7300000000e+02 0.0000e+00 -1.0000e+00
       21  1    1    2  504  502 +4.9817601426e+01 -3.5295928591e+01 +3.5958742490e+00 6.1159842205e+01 0.0000000000e+00 0.0000e+00 -1.0000e+00
       21  1    1    2  505  504 +1.8422853509e+01 -2.4944565969e+01 +1.4274737180e+01 3.4137970419e+01 0.0000000000e+00 0.0000e+00 -1.0000e+00
<mgrwt>
<rscale>  4 0.20943848E+03</rscale>
<asrwt>0</asrwt>
<pdfrwt beam="1">  1       21 0.26403110E+00 0.20943848E+03</pdfrwt>
<pdfrwt beam="2">  1       21 0.10334554E-01 0.20943848E+03</pdfrwt>
<totfact> 0.41404611E+03</totfact>
</mgrwt>
</event>
<event>
 6      1 +2.5168323e+02 2.29137500e+02 7.54677100e-03 1.07064900e-01
       21 -1    0    0  505  502 +0.0000000000e+00 +0.0000000000e+00 +1.9710410210e+02 1.9710410210e+02 0.0000000000e+00 0.0000e+00 1.0000e+00
       21 -1    0    0  502  503 -0.0000000000e+00 -0.0000000000e+00 -5.8749111545e+02 5.8749111545e+02 0.0000000000e+00 0.0000e+00 -1.0000e+00
        6  1    1    2  501    0 -1.6033183168e+02 -1.3034278397e+02 -1.0151060629e+02 2.8797385432e+02 1.7300000000e+02 0.0000e+00 1.0000e+00
       -6  1    1    2    0  504 +1.1868515671e+02 -5.3605060260e+00 -1.1152042630e+02 2.3765669973e+02 1.7300000000e+02 0.0000e+00 -1.0000e+00
       21  1    1    2  504  503 +3.8408091578e+01 +1.5560426731e+02 -1.7702305461e+02 2.3879914440e+02 0.0000000000e+00 0.0000e+00 -1.0000e+00
       21  1    1    2  505  501 +3.2385833920e+00 -1.9900977316e+01 -3.3292615921e-01 2.0165519094e+01 0.0000000000e+00 0.0000e+00 -1.0000e+00
<mgrwt>
<rscale>  4 0.22913755E+03</rscale>
<asrwt>0</asrwt>
<pdfrwt beam="1">  1       21 0.30323709E-01 0.22913755E+03</pdfrwt>
<pdfrwt beam="2">  1       21 0.90383246E-01 0.22913755E+03</pdfrwt>
<totfact> 0.10598850E+04</totfact>
</mgrwt>
</event>
<event>
 6      1 +2.5168323e+02 2.41250500e+02 7.54677100e-03 1.16820100e-01
       21 -1    0    0  505  502 +0.0000000000e+00 +0.0000000000e+00 +1.3291563168e+03 1.3291563168e+03 0.0000000000e+00 0.0000e+00 -1.0000e+00
       21 -1    0    0  501  503 -0.0000000000e+00 -0.0000000000e+00 -1.0805133918e+02 1.0805133918e+02 0.0000000000e+00 0.0000e+00 1.0000e+00
        6  1    1    2  501    0 -1.5157194889e+02 +5.9856556837e+01 +3.2600822182e+02 4.0344420157e+02 1.7300000000e+02 0.0000e+00 -1.0000e+00
       -6  1    1    2    0  502 +1.7350042418e+02 -2.9216452518e+01 +3.1342548210e+02 3.9889914906e+02 1.7300000000e+02 0.0000e+00 1.0000e+00
       21  1    1    2  504  503 +1.9905977570e+01 -1.5057924581e+01 -1.9725264962e+01 3.1813128006e+01 0.0000000000e+00 0.0000e+00 -1.0000e+00
       21  1    1    2  505  504 -4.1834452860e+01 -1.5582179738e+01 +6.0139653866e+02 6.0305117733e+02 0.0000000000e+00 0.0000e+00 -1.0000e+00
<mgrwt>
<rscale>  4 0.24125047E+03</rscale>
<asrwt>0</asrwt>
<pdfrwt beam="1">  1       21 0.20448558E+00 0.24125047E+03</pdfrwt>
<pdfrwt beam="2">  1       21 0.16623284E-01 0.24125047E+03</pdfrwt>
<totfact> 0.39154164E+03</totfact>
</mgrwt>
</event>
<event>
 6      1 +2.5168323e+02 1.78238700e+02 7.54677100e-03 1.04003000e-01
       21 -1    0    0  504  502 +0.0000000000e+00 +0.0000000000e+00 +3.8390772730e+02 3.8390772730e+02 0.0000000000e+00 0.0000e+00 -1.0000e+00
       21 -1    0    0  502  503 -0.0000000000e+00 -0.0000000000e+00 -1.7041165883e+03 1.7041165883e+03 0.0000000000e+00 0.0000e+00 -1.0000e+00
        6  1    1    2  501    0 +1.3986815513e+01 +4.7430021575e+01 +2.0268587609e+02 2.7102730918e+02 1.7300000000e+02 0.0000e+00 -1.0000e+00
       -6  1    1    2    0  505 +1.0738402823e+02 -1.4103424697e+01 +6.1549848110e+01 2.1318447389e+02 1.7300000000e+02 0.0000e+00 -1.0000e+00
       21  1    1    2  504  501 -1.1384601640e+02 -1.3867123340e+01 -1.5777329789e+03 1.5818958769e+03 0.0000000000e+00 0.0000e+00 -1.0000e+00
       21  1    1    2  505  503 -7.5248273406e+00 -1.9459473538e+01 -6.7116063199e+00 2.1916655681e+01 0.0000000000e+00 0.0000e+00 -1.0000e+00
<mgrwt>
<rscale>  4 0.17823870E+03</rscale>
<asrwt>0</asrwt>
<pdfrwt beam="1">  1       21 0.59062727E-01 0.17823870E+03</pdfrwt>
<pdfrwt beam="2">  1       21 0.26217178E+00 0.17823870E+03</pdfrwt>
<totfact> 0.15474144E+02</totfact>
</mgrwt>
</event>
<event>
 6      1 +2.5168323e+02 2.25237900e+02 7.54677100e-03 1.16820100e-01
       21 -1    0    0  505  502 +0.0000000000e+00 +0.0000000000e+00 +5.2664290974e+02 5.2664290974e+02 0.0000000000e+00 0.0000e+00 -1.0000e+00
       21 -1    0    0  501  503 -0.0000000000e+00 -0.0000000000e+00 -3.7319604284e+02 3.7319604284e+02 0.0000000000e+00 0.0000e+00 -1.0000e+00
        6  1    1    2  501    0 +1.7282480372e+00 -8.8208403536e+01 -8.7449254316e+01 2.1297906323e+02 1.7300000000e+02 0.0000e+00 -1.0000e+00
       -6  1    1    2    0  502 -9.7743682746e+01 +2.0941563773e+02 -7.5443251647e+01 2.9837798354e+02 1.7300000000e+02 0.0000e+00 -1.0000e+00
       21  1    1    2  504  503 +1.5798476740e+01 -2.5514086040e+01 -1.5608110431e+01 3.3825634732e+01 0.0000000000e+00 0.0000e+00 -1.0000e+00
       21  1    1    2  505  504 +8.0216957969e+01 -9.5693148152e+01 +3.3194748329e+02 3.5465627107e+02 0.0000000000e+00 0.0000e+00 -1.0000e+00
<mgrwt>
<rscale>  4 0.22523788E+03</rscale>
<asrwt>0</asrwt>
<pdfrwt beam="1">  1       21 0.81021986E-01 0.22523788E+03</pdfrwt>
<pdfrwt beam="2">  1       21 0.57414776E-01 0.22523788E+03</pdfrwt>
<totfact> 0.37093032E+03</totfact>
</mgrwt>
</event>
<event>
 6      1 +2.5168323e+02 2.74583700e+02 7.54677100e-03 1.17132900e-01
       21 -1    0    0  505  502 +0.0000000000e+00 +0.0000000000e+00 +4.3824956740e+02 4.3824956740e+02 0.0000000000e+00 0.0000e+00 1.0000e+00
       21 -1    0    0  504  503 -0.0000000000e+00 -0.0000000000e+00 -1.5294000784e+03 1.5294000784e+03 0.0000000000e+00 0.0000e+00 1.0000e+00
        6  1    1    2  501    0 +3.6796294938e+01 -2.2164956240e+02 +5.3942491161e+01 2.8865427103e+02 1.7300000000e+02 0.0000e+00 1.0000e+00
       -6  1    1    2    0  502 -6.1341388912e+01 +2.0599952243e+02 +1.7135211486e+02 3.2479088119e+02 1.7300000000e+02 0.0000e+00 -1.0000e+00
       21  1    1    2  504  501 +8.5830674981e+00 +3.5645031719e+01 -1.3262857190e+03 1.3267923898e+03 0.0000000000e+00 0.0000e+00 1.0000e+00
       21  1    1    2  505  503 +1.5962026476e+01 -1.9994991754e+01 +9.8406019775e+00 2.7412103745e+01 0.0000000000e+00 0.0000e+00 1.0000e+00
<mgrwt>
<rscale>  4 0.27458365E+03</rscale>
<asrwt>0</asrwt>
<pdfrwt beam="1">  1       21 0.67423010E-01 0.27458365E+03</pdfrwt>
<pdfrwt beam="2">  1       21 0.23529232E+00 0.27458365E+03</pdfrwt>
<totfact> 0.14811551E+02</totfact>
</mgrwt>
</event>
<event>
 6      1 +2.5168323e+02 1.76677300e+02 7.54677100e-03 1.07064900e-01
       21 -1    0    0  505  502 +0.0000000000e+00 +0.0000000000e+00 +9.8163139038e+01 9.8163139038e+01 0.0000000000e+00 0.0000e+00 1.0000e+00
       21 -1    0    0  504  503 -0.0000000000e+00 -0.0000000000e+00 -1.5768324602e+03 1.5768324602e+03 0.0000000000e+00 0.0000e+00 1.0000e+00
        6  1    1    2  501    0 -7.9400942915e+01 -4.3793481730e+01 -4.7629262864e+02 5.1478738026e+02 1.7300000000e+02 0.0000e+00 1.0000e+00
       -6  1    1    2    0  503 +3.9918731202e+00 -5.3292059081e+01 -9.2227364053e+02 9.3987959156e+02 1.7300000000e+02 0.0000e+00 -1.0000e+00
       21  1    1    2  504  502 +1.2636108579e+02 +7.4228971353e+01 -4.1073354116e+01 1.5219751840e+02 0.0000000000e+00 0.0000e+00 1.0000e+00
       21  1    1    2  505  501 -5.0952015993e+01 +2.2856569458e+01 -3.9029697905e+01 6.8131109045e+01 0.0000000000e+00 0.0000e+00 1.0000e+00
<mgrwt>
<rscale>  4 0.17667727E+03</rscale>
<asrwt>0</asrwt>
<pdfrwt beam="1">  1       21 0.15102021E-01 0.17667727E+03</pdfrwt>
<pdfrwt beam="2">  1       21 0.24258961E+00 0.17667727E+03</pdfrwt>
<totfact> 0.29012343E+03</totfact>
</mgrwt>
</event>
<event>
 6      1 +2.5168323e+02 2.86258800e+02 7.54677100e-03 1.16820100e-01
       21 -1    0    0  504  502 +0.0000000000e+00 +0.0000000000e+00 +7.5598911877e+02 7.5598911877e+02 0.0000000000e+00 0.0000e+00 -1.0000e+00
       21 -1    0    0  501  503 -0.0000000000e+00 -0.0000000000e+00 -5.9232548717e+02 5.9232548717e+02 0.0000000000e+00 0.0000e+00 -1.0000e+00
        6  1    1    2  501    0 +1.4919743207e+02 +2.8765974521e+02 -5.8497749314e+01 3.7196638212e+02 1.7300000000e+02 0.0000e+00 -1.0000e+00
       -6  1    1    2    0  505 -3.0160641203e+01 -1.5504184965e+02 +3.2941943290e+02 4.0421999232e+02 1.7300000000e+02 0.0000e+00 -1.0000e+00
       21  1    1    2  504  503 -2.3999401271e+01 -9.4657100809e+01 -3.2079822595e+02 3.3533183530e+02 0.0000000000e+00 0.0000e+00 -1.0000e+00
       21  1    1    2  505  502 -9.5037389593e+01 -3.7960794755e+01 +2.1354017396e+02 2.3679639620e+02 0.0000000000e+00 0.0000e+00 1.0000e+00
<mgrwt>
<rscale>  4 0.28625884E+03</rscale>
<asrwt>0</asrwt>
<pdfrwt beam="1">  1       21 0.11630602E+00 0.28625884E+03</pdfrwt>
<pdfrwt beam="2">  1       21 0.91126998E-01 0.28625884E+03</pdfrwt>
<totfact> 0.53466387E+02</totfact>
</mgrwt>
</event>
<event>
 6      1 +2.5168323e+02 2.50764700e+02 7.54677100e-03 1.16820100e-01
       21 -1    0    0  501  502 +0.0000000000e+00 +0.0000000000e+00 +1.8501284885e+02 1.8501284885e+02 0.0000000000e+00 0.0000e+00 -1.0000e+00
       21 -1    0    0  504  503 -0.0000000000e+00 -0.0000000000e+00 -9.0576251777e+02 9.0576251777e+02 0.0000000000e+00 0.0000e+00 1.0000e+00
        6  1    1    2  501    0 +1.3541920697e+02 +1.9199596761e+02 -1.6852977094e+02 3.3694524316e+02 1.7300000000e+02 0.0000e+00 1.0000e+00
       -6  1    1    2    0  503 -1.2816158473e+02 -1.0511205993e+02 -3.3991525825e+02 4.1586694956e+02 1.7300000000e+02 0.0000e+00 -1.0000e+00
       21  1    1    2  504  505 +7.7244987991e+01 -4.2397459314e+01 -2.2498763705e+02 2.4162733610e+02 0.0000000000e+00 0.0000e+00 1.0000e+00
       21  1    1    2  505  502 -8.4502610228e+01 -4.4486448367e+01 +1.2682997332e+01 9.6335837802e+01 0.0000000000e+00 0.0000e+00 -1.0000e+00
<mgrwt>
<rscale>  4 0.25076474E+03</rscale>
<asrwt>0</asrwt>
<pdfrwt beam="1">  1       21 0.28463516E-01 0.25076474E+03</pdfrwt>
<pdfrwt beam="2">  1       21 0.13934808E+00 0.25076474E+03</pdfrwt>
<totfact> 0.40885377E+03</totfact>
</mgrwt>
</event>
<event>
 6      1 +2.5168323e+02 1.87388900e+02 7.54677100e-03 1.03924000e-01
       21 -1    0    0  501  502 +0.0000000000e+00 +0.0000000000e+00 +2.0392317521e+02 2.0392317521e+02 0.0000000000e+00 0.0000e+00 -1.0000e+00
       21 -1    0    0  504  503 -0.0000000000e+00 -0.0000000000e+00 -2.5867621772e+02 2.5867621772e+02 0.0000000000e+00 0.0000e+00 -1.0000e+00
        6  1    1    2  501    0 +3.8456765796e+00 -8.4534881849e+01 -1.1573596774e+02 2.2468811652e+02 1.7300000000e+02 0.0000e+00 -1.0000e+00
       -6  1    1    2    0  505 +2.2190128089e+01 +4.5423025134e+01 +4.2252020069e+01 1.8512127430e+02 1.7300000000e+02 0.0000e+00 -1.0000e+00
       21  1    1    2  504  502 -1.7566545300e+01 +2.0095750109e+01 +1.7541070777e+01 3.1939189881e+01 0.0000000000e+00 0.0000e+00 -1.0000e+00
       21  1    1    2  505  503 -8.4692593681e+00 +1.9016106605e+01 +1.1898343893e+00 2.0850812228e+01 0.0000000000e+00 0.0000e+00 -1.0000e+00
<mgrwt>
<rscale>  4 0.18738886E+03</rscale>
<asrwt>0</asrwt>
<pdfrwt beam="1">  1       21 0.31372796E-01 0.18738886E+03</pdfrwt>
<pdfrwt beam="2">  1       21 0.39796341E-01 0.18738886E+03</pdfrwt>
<totfact> 0.59562998E+04</totfact>
</mgrwt>
</event>
<event>
 6      1 +2.5168323e+02 1.86960500e+02 7.54677100e-03 1.17132900e-01
       21 -1    0    0  503  502 +0.0000000000e+00 +0.0000000000e+00 +5.4455430961e+02 5.4455430961e+02 0.0000000000e+00 0.0000e+00 1.0000e+00
       21 -1    0    0  504  503 -0.0000000000e+00 -0.0000000000e+00 -1.0547546789e+03 1.0547546789e+03 0.0000000000e+00 0.0000e+00 1.0000e+00
        6  1    1    2  501    0 +4.0592895802e+01 +9.5134411022e+01 +1.1297186422e+02 2.3106272191e+02 1.7300000000e+02 0.0000e+00 1.0000e+00
       -6  1    1    2    0  505 -7.2726153033e+01 -2.4513293864e+01 -7.4646768167e+01 2.0344811355e+02 1.7300000000e+02 0.0000e+00 -1.0000e+00
       21  1    1    2  504  501 +4.7284592859e+01 -2.8451051013e+01 -8.5413763066e+02 8.5591844655e+02 0.0000000000e+00 0.0000e+00 1.0000e+00
       21  1    1    2  505  502 -1.5151335628e+01 -4.2170066144e+01 +3.0561216536e+02 3.0887970647e+02 0.0000000000e+00 0.0000e+00 1.0000e+00
<mgrwt>
<rscale>  4 0.18696051E+03</rscale>
<asrwt>0</asrwt>
<pdfrwt beam="1">  1       21 0.83777587E-01 0.18696051E+03</pdfrwt>
<pdfrwt beam="2">  1       21 0.16226995E+00 0.18696051E+03</pdfrwt>
<totfact> 0.30224353E+02</totfact>
</mgrwt>
</event>
<event>
 6      1 +2.5168323e+02 2.37220100e+02 7.54677100e-03 1.07240600e-01
       21 -1    0    0  505  502 +0.0000000000e+00 +0.0000000000e+00 +6.6466205655e+02 6.6466205655e+02 0.0000000000e+00 0.0000e+00 -1.0000e+00
       21 -1    0    0  504  503 -0.0000000000e+00 -0.0000000000e+00 -2.2929499755e+02 2.2929499755e+02 0.0000000000e+00 0.0000e+00 1.0000e+00
        6  1    1    2  501    0 -5.4898762656e+01 -1.4031161417e+02 +4.3023217976e+02 4.8757558564e+02 1.7300000000e+02 0.0000e+00 -1.0000e+00
       -6  1    1    2    0  502 +5.0296115674e+01 +1.6182871226e+02 +9.8158765140e+01 2.6130896375e+02 1.7300000000e+02 0.0000e+00 1.0000e+00
       21  1    1    2  504  501 -2.0043775133e+01 -7.8985198842e+00 +1.9512448096e+01 2.9066736464e+01 0.0000000000e+00 0.0000e+00 1.0000e+00
       21  1    1    2  505  503 +2.4646422115e+01 -1.3618578206e+01 -1.1253633400e+02 1.1600576824e+02 0.0000000000e+00 0.0000e+00 1.0000e+00
<mgrwt>
<rscale>  4 0.23722013E+03</rscale>
<asrwt>0</asrwt>
<pdfrwt beam="1">  1       21 0.10225570E+00 0.23722013E+03</pdfrwt>
<pdfrwt beam="2">  1       21 0.35276154E-01 0.23722013E+03</pdfrwt>
<totfact> 0.58408843E+03</totfact>
</mgrwt>
</event>
<event>
 6      1 +2.5168323e+02 3.62676500e+02 7.54677100e-03 1.07240600e-01
       21 -1    0    0  505  502 +0.0000000000e+00 +0.0000000000e+00 +5.6088829601e+02 5.6088829601e+02 0.0000000000e+00 0.0000e+00 -1.0000e+00
       21 -1    0    0  504  503 -0.0000000000e+00 -0.0000000000e+00 -4.6644064227e+02 4.6644064227e+02 0.0000000000e+00 0.0000e+00 1.0000e+00
        6  1    1    2  501    0 +2.3483204828e+02 +2.4592758165e+02 +2.5616189614e+02 4.5953714034e+02 1.7300000000e+02 0.0000e+00 -1.0000e+00
       -6  1    1    2    0  502 -2.0257749320e+02 -1.9962652975e+02 +3.8785484377e+00 3.3291505714e+02 1.7300000000e+02 0.0000e+00 1.0000e+00
       21  1    1    2  504  501 +1.5901260032e+01 +5.0510411666e+01 -8.4491378661e+01 9.9714316049e+01 0.0000000000e+00 0.0000e+00 1.0000e+00
       21  1    1    2  505  503 -4.8155815115e+01 -9.6811463569e+01 -8.1101412171e+01 1.3516242475e+02 0.0000000000e+00 0.0000e+00 1.0000e+00
<mgrwt>
<rscale>  4 0.36267647E+03</rscale>
<asrwt>0</asrwt>
<pdfrwt beam="1">  1       21 0.86290507E-01 0.36267647E+03</pdfrwt>
<pdfrwt beam="2">  1       21 0.71760099E-01 0.36267647E+03</pdfrwt>
<totfact> 0.18144321E+03</totfact>
</mgrwt>
</event>
<event>
 6      1 +2.5168323e+02 2.97761900e+02 7.54677100e-03 1.15942100e-01
       21 -1    0    0  504  502 +0.0000000000e+00 +0.0000000000e+00 +8.4388017222e+02 8.4388017222e+02 0.0000000000e+00 0.0000e+00 -1.0000e+00
       21 -1    0    0  501  503 -0.0000000000e+00 -0.0000000000e+00 -2.8941092013e+02 2.8941092013e+02 0.0000000000e+00 0.0000e+00 -1.0000e+00
        6  1    1    2  501    0 -1.7591831790e+02 -1.9794117887e+02 +2.7685637506e+02 4.2036462420e+02 1.7300000000e+02 0.0000e+00 -1.0000e+00
       -6  1    1    2    0  505 +1.5995074919e+02 +1.6386340866e+02 +4.3587464326e+02 5.2187274646e+02 1.7300000000e+02 0.0000e+00 -1.0000e+00
       21  1    1    2  504  503 +2.0284053044e+01 +1.2299282557e+00 -1.5656688173e+02 1.5788015704e+02 0.0000000000e+00 0.0000e+00 -1.0000e+00
       21  1    1    2  505  502 -4.3164843399e+00 +3.2847841957e+01 -1.6948844956e+00 3.3173564652e+01 0.0000000000e+00 0.0000e+00 -1.0000e+00
<mgrwt>
<rscale>  4 0.29776193E+03</rscale>
<asrwt>0</asrwt>
<pdfrwt beam="1">  1       21 0.12982772E+00 0.29776193E+03</pdfrwt>
<pdfrwt beam="2">  1       21 0.44524757E-01 0.29776193E+03</pdfrwt>
<totfact> 0.19393183E+03</totfact>
</mgrwt>
</event>
<event>
 6      1 +2.5168323e+02 2.37665400e+02 7.54677100e-03 1.16820100e-01
       21 -1    0    0  505  502 +0.0000000000e+00 +0.0000000000e+00 +6.8952266303e+02 6.8952266303e+02 0.0000000000e+00 0.0000e+00 1.0000e+00
       21 -1    0    0  504  503 -0.0000000000e+00 -0.0000000000e+00 -3.4234381766e+02 3.4234381766e+02 0.0000000000e+00 0.0000e+00 1.0000e+00
        6  1    1    2  501    0 -1.2889689282e+02 +1.8142432844e+01 +3.7135465069e+02 4.2985675921e+02 1.7300000000e+02 0.0000e+00 1.0000e+00
       -6  1    1    2    0  503 +1.8336567357e+02 -8.6369721950e+00 +5.4904411700e+00 2.5230281900e+02 1.7300000000e+02 0.0000e+00 1.0000e+00
       21  1    1    2  504  502 -1.4065081806e+01 +2.8472708660e+01 -1.8347747374e+02 1.8620554512e+02 0.0000000000e+00 0.0000e+00 1.0000e+00
       21  1    1    2  505  501 -4.0403698941e+01 -3.7978169309e+01 +1.5381122724e+02 1.6350135736e+02 0.0000000000e+00 0.0000e+00 1.0000e+00
<mgrwt>
<rscale>  4 0.23766541E+03</rscale>
<asrwt>0</asrwt>
<pdfrwt beam="1">  1       21 0.10608041E+00 0.23766541E+03</pdfrwt>
<pdfrwt beam="2">  1       21 0.52668280E-01 0.23766541E+03</pdfrwt>
<totfact> 0.23473452E+03</totfact>
</mgrwt>
</event>
<event>
 6      1 +2.5168323e+02 3.01646200e+02 7.54677100e-03 1.07240600e-01
       21 -1    0    0  505  502 +0.0000000000e+00 +0.0000000000e+00 +1.2486111120e+03 1.2486111120e+03 0.0000000000e+00 0.0000e+00 -1.0000e+00
       21 -1    0    0  504  503 -0.0000000000e+00 -0.0000000000e+00 -1.6041865419e+02 1.6041865419e+02 0.0000000000e+00 0.0000e+00 1.0000e+00
        6  1    1    2  501    0 +2.2530486891e+02 +3.7037176130e+01 +5.3485591243e+02 6.0674037564e+02 1.7300000000e+02 0.0000e+00 1.0000e+00
       -6  1    1    2    0  502 -2.6085733057e+02 -4.3696723083e+01 +4.7195979768e+02 5.6800616295e+02 1.7300000000e+02 0.0000e+00 -1.0000e+00
       21  1    1    2  504  501 +2.8001970384e+01 +3.3729912738e+01 +1.5204133817e+02 1.5823522323e+02 0.0000000000e+00 0.0000e+00 -1.0000e+00
       21  1    1    2  505  503 +7.5504912774e+00 -2.7070365784e+01 -7.0664590476e+01 7.6048004375e+01 0.0000000000e+00 0.0000e+00 1.0000e+00
<mgrwt>
<rscale>  4 0.30164624E+03</rscale>
<asrwt>0</asrwt>
<pdfrwt beam="1">  1       21 0.19209401E+00 0.30164624E+03</pdfrwt>
<pdfrwt beam="2">  1       21 0.24679794E-01 0.30164624E+03</pdfrwt>
<totfact> 0.21469101E+03</totfact>
</mgrwt>
</event>
<event>
 6      1 +2.5168323e+02 2.74630500e+02 7.54677100e-03 1.09842800e-01
       21 -1    0    0  505  502 +0.0000000000e+00 +0.0000000000e+00 +3.8195532367e+02 3.8195532367e+02 0.0000000000e+00 0.0000e+00 1.0000e+00
       21 -1    0    0  504  503 -0.0000000000e+00 -0.0000000000e+00 -5.0513815407e+02 5.0513815407e+02 0.0000000000e+00 0.0000e+00 -1.0000e+00
        6  1    1    2  501    0 -3.1888198577e+02 -5.4229443489e+01 -1.5849655804e+02 3.9959568604e+02 1.7300000000e+02 0.0000e+00 -1.0000e+00
       -6  1    1    2    0  502 +1.7740607553e+02 -2.8054408574e+00 +7.0064430805e+01 2.5752438835e+02 1.7300000000e+02 0.0000e+00 1.0000e+00
       21  1    1    2  504  501 -3.4357964051e+01 -1.3735649235e+01 -1.2855130457e+01 3.9171317730e+01 0.0000000000e+00 0.0000e+00 -1.0000e+00
       21  1    1    2  505  503 +1.7583387429e+02 +7.0770533581e+01 -2.1895572697e+01 1.9080208562e+02 0.0000000000e+00 0.0000e+00 -1.0000e+00
<mgrwt>
<rscale>  4 0.27463045E+03</rscale>
<asrwt>0</asrwt>
<pdfrwt beam="1">  1       21 0.58762357E-01 0.27463045E+03</pdfrwt>
<pdfrwt beam="2">  1       21 0.77713563E-01 0.27463045E+03</pdfrwt>
<totfact> 0.37568955E+03</totfact>
</mgrwt>
</event>
<event>
 6      1 +2.5168323e+02 2.42969000e+02 7.54677100e-03 1.11671100e-01
       21 -1    0    0  503  502 +0.0000000000e+00 +0.0000000000e+00 +9.4590542864e+02 9.4590542864e+02 0.0000000000e+00 0.0000e+00 -1.0000e+00
       21 -1    0    0  501  503 -0.0000000000e+00 -0.0000000000e+00 -1.2747340171e+02 1.2747340171e+02 0.0000000000e+00 0.0000e+00 -1.0000e+00
        6  1    1    2  501    0 +9.2297326735e+01 +9.3497696836e+01 +2.6077108626e+02 3.3939825466e+02 1.7300000000e+02 0.0000e+00 -1.0000e+00
       -6  1    1    2    0  504 -7.2900419562e+01 -1.9285112660e+02 +1.4797874461e+02 3.0713634930e+02 1.7300000000e+02 0.0000e+00 -1.0000e+00
       21  1    1    2  504  505 -4.3016186246e+01 +6.6828614985e+01 +2.6195278067e+02 2.7374388644e+02 0.0000000000e+00 0.0000e+00 -1.0000e+00
       21  1    1    2  505  502 +2.3619279073e+01 +3.2524814781e+01 +1.4772941539e+02 1.5310033995e+02 0.0000000000e+00 0.0000e+00 -1.0000e+00
<mgrwt>
<rscale>  4 0.24296902E+03</rscale>
<asrwt>0</asrwt>
<pdfrwt beam="1">  1       21 0.14552391E+00 0.24296902E+03</pdfrwt>
<pdfrwt beam="2">  1       21 0.19611293E-01 0.24296902E+03</pdfrwt>
<totfact> 0.74726206E+03</totfact>
</mgrwt>
</event>
<event>
 6      1 +2.5168323e+02 2.74570400e+02 7.54677100e-03 1.16820100e-01
       21 -1    0    0  505  502 +0.0000000000e+00 +0.0000000000e+00 +2.0171978245e+02 2.0171978245e+02 0.0000000000e+00 0.0000e+00 -1.0000e+00
       21 -1    0    0  501  503 -0.0000000000e+00 -0.0000000000e+00 -1.1824948149e+03 1.1824948149e+03 0.0000000000e+00 0.0000e+00 -1.0000e+00
        6  1    1    2  501    0 -1.4676098306e+02 +1.3425556257e+02 -2.1414889537e+02 3.3963523318e+02 1.7300000000e+02 0.0000e+00 -1.0000e+00
       -6  1    1    2    0  502 +1.8827225601e+02 -1.1887994728e+02 -5.3034991125e+01 2.8691565753e+02 1.7300000000e+02 0.0000e+00 -1.0000e+00
       21  1    1    2  504  503 -8.2974682724e+01 -6.6848658095e+01 -6.7015440287e+02 6.7857237252e+02 0.0000000000e+00 0.0000e+00 -1.0000e+00
       21  1    1    2  505  504 +4.1463409766e+01 +5.1473042806e+01 -4.3436743110e+01 7.9091334147e+01 0.0000000000e+00 0.0000e+00 1.0000e+00
<mgrwt>
<rscale>  4 0.27457038E+03</rscale>
<asrwt>0</asrwt>
<pdfrwt beam="1">  1       21 0.31033812E-01 0.27457038E+03</pdfrwt>
<pdfrwt beam="2">  1       21 0.18192228E+00 0.27457038E+03</pdfrwt>
<totfact> 0.16397100E+03</totfact>
</mgrwt>
</event>
<event>
 6      1 +2.5168323e+02 1.82815300e+02 7.54677100e-03 1.16820100e-01
       21 -1    0    0  505  502 +0.0000000000e+00 +0.0000000000e+00 +4.7124962629e+02 4.7124962629e+02 0.0000000000e+00 0.0000e+00 -1.0000e+00
       21 -1    0    0  504  503 -0.0000000000e+00 -0.0000000000e+00 -2.9696428316e+02 2.9696428316e+02 0.0000000000e+00 0.0000e+00 -1.0000e+00
        6  1    1    2  501    0 +6.4488966881e+01 +2.2829850832e+01 +4.3729086190e+01 1.9110536863e+02 1.7300000000e+02 0.0000e+00 1.0000e+00
       -6  1    1    2    0  503 -5.7140413402e+01 +2.7554070359e+01 +6.7124717079e+01 1.9610961547e+02 1.7300000000e+02 0.0000e+00 1.0000e+00
       21  1    1    2  504  502 -2.5740385499e+01 -2.0577212959e+01 -1.5566784959e+02 1.5911778196e+02 0.0000000000e+00 0.0000e+00 -1.0000e+00
       21  1    1    2  505  501 +1.8391832021e+01 -2.9806708232e+01 +2.1909938945e+02 2.2188114340e+02 0.0000000000e+00 0.0000e+00 -1.0000e+00
<mgrwt>
<rscale>  4 0.18281525E+03</rscale>
<asrwt>0</asrwt>
<pdfrwt beam="1">  1       21 0.72499942E-01 0.18281525E+03</pdfrwt>
<pdfrwt beam="2">  1       21 0.45686813E-01 0.18281525E+03</pdfrwt>
<totfact> 0.79318375E+03</totfact>
</mgrwt>
</event>
<event>
 6      1 +2.5168323e+02 1.87428900e+02 7.54677100e-03 1.03924000e-01
       21 -1    0    0  504  502 +0.0000000000e+00 +0.0000000000e+00 +2.3791507286e+02 2.3791507286e+02 0.0000000000e+00 0.0000e+00 1.0000e+00
       21 -1    0    0  501  503 -0.0000000000e+00 -0.0000000000e+00 -1.4657920194e+03 1.4657920194e+03 0.0000000000e+00 0.0000e+00 1.0000e+00
        6  1    1    2  501    0 -2.0272682373e+02 -6.2158647635e+01 -2.5772965527e+02 3.7591945645e+02 1.7300000000e+02 0.0000e+00 1.0000e+00
       -6  1    1    2    0  505 +5.5610634934e+01 -5.2350674677e+00 -1.1017884033e+03 1.1166855575e+03 1.7300000000e+02 0.0000e+00 1.0000e+00
       21  1    1    2  504  503 +1.3006233041e+02 +4.8396493830e+01 +1.1798130266e+02 1.8214834116e+02 0.0000000000e+00 0.0000e+00 1.0000e+00
       21  1    1    2  505  502 +1.7053858380e+01 +1.8997221273e+01 +1.3659809391e+01 2.8953737139e+01 0.0000000000e+00 0.0000e+00 -1.0000e+00
<mgrwt>
<rscale>  4 0.18742890E+03</rscale>
<asrwt>0</asrwt>
<pdfrwt beam="1">  1       21 0.36602320E-01 0.18742890E+03</pdfrwt>
<pdfrwt beam="2">  1       21 0.22550646E+00 0.18742890E+03</pdfrwt>
<totfact> 0.67463426E+02</totfact>
</mgrwt>
</event>
<event>
 6      1 +2.5168323e+02 1.81699700e+02 7.54677100e-03 1.17132900e-01
       21 -1    0    0  503  502 +0.0000000000e+00 +0.0000000000e+00 +5.9831244951e+01 5.9831244951e+01 0.0000000000e+00 0.0000e+00 1.0000e+00
       21 -1    0    0  504  503 -0.0000000000e+00 -0.0000000000e+00 -1.4954509831e+03 1.4954509831e+03 0.0000000000e+00 0.0000e+00 1.0000e+00
        6  1    1    2  501    0 -3.2307032790e+01 +8.6774013334e+01 -5.6579764397e+02 5.9885678395e+02 1.7300000000e+02 0.0000e+00 1.0000e+00
       -6  1    1    2    0  505 +7.2731419022e+01 +4.0963592104e+01 -4.5052243377e+02 4.8976253279e+02 1.7300000000e+02 0.0000e+00 -1.0000e+00
       21  1    1    2  504  501 -2.0616194153e+01 -1.2170792787e+02 -4.2706629819e+02 4.4454861401e+02 0.0000000000e+00 0.0000e+00 1.0000e+00
       21  1    1    2  505  502 -1.9808192078e+01 -6.0296775637e+00 +7.7666377488e+00 2.2114297340e+01 0.0000000000e+00 0.0000e+00 1.0000e+00
<mgrwt>
<rscale>  4 0.18169966E+03</rscale>
<asrwt>0</asrwt>
<pdfrwt beam="1">  1       21 0.92048083E-02 0.18169966E+03</pdfrwt>
<pdfrwt beam="2">  1       21 0.23006935E+00 0.18169966E+03</pdfrwt>
<totfact> 0.82897781E+03</totfact>
</mgrwt>
</event>
<event>
 6      1 +2.5168323e+02 1.83205500e+02 7.54677100e-03 1.11671100e-01
       21 -1    0    0  503  502 +0.0000000000e+00 +0.0000000000e+00 +5.6789077714e+01 5.6789077714e+01 0.0000000000e+00 0.0000e+00 -1.0000e+00
       21 -1    0    0  501  503 -0.0000000000e+00 -0.0000000000e+00 -9.8886340700e+02 9.8886340700e+02 0.0000000000e+00 0.0000e+00 -1.0000e+00
        6  1    1    2  501    0 -1.9764368739e+00 +5.6595154903e+01 -4.0326580506e+02 4.4244686392e+02 1.7300000000e+02 0.0000e+00 1.0000e+00
       -6  1    1    2    0  504 -1.4839514828e+01 -6.2953046298e+01 -4.5607484823e+02 4.9205341624e+02 1.7300000000e+02 0.0000e+00 -1.0000e+00
       21  1    1    2  504  505 +2.7019045869e+01 +3.4103902597e+01 -6.8695268765e+01 8.1315096770e+01 0.0000000000e+00 0.0000e+00 -1.0000e+00
       21  1    1    2  505  502 -1.0203094167e+01 -2.7746011202e+01 -4.0384072266e+00 2.9837107787e+01 0.0000000000e+00 0.0000e+00 -1.0000e+00
<mgrwt>
<rscale>  4 0.18320550E+03</rscale>
<asrwt>0</asrwt>
<pdfrwt beam="1">  1       21 0.87367814E-02 0.18320550E+03</pdfrwt>
<pdfrwt beam="2">  1       21 0.15213283E+00 0.18320550E+03</pdfrwt>
<totfact> 0.29808109E+04</totfact>
</mgrwt>
</event>
<event>
 6      1 +2.5168323e+02 2.38147800e+02 7.54677100e-03 1.12989000e-01
       21 -1    0    0  501  502 +0.0000000000e+00 +0.0000000000e+00 +1.9980755231e+02 1.9980755231e+02 0.0000000000e+00 0.0000e+00 1.0000e+00
       21 -1    0    0  502  503 -0.0000000000e+00 -0.0000000000e+00 -1.3550185989e+03 1.3550185989e+03 0.0000000000e+00 0.0000e+00 -1.0000e+00
        6  1    1    2  501    0 -1.5962800567e+01 -1.8519378604e+02 +7.4741748529e+01 2.6470148916e+02 1.7300000000e+02 0.0000e+00 1.0000e+00
       -6  1    1    2    0  504 -8.4282042645e+01 +5.7092881499e+01 -4.4860738658e+02 4.9146784953e+02 1.7300000000e+02 0.0000e+00 -1.0000e+00
       21  1    1    2  504  505 +6.5883488125e+01 +1.0241630819e+02 -5.4377538239e+02 5.5724447120e+02 0.0000000000e+00 0.0000e+00 -1.0000e+00
       21  1    1    2  505  503 +3.4361355087e+01 +2.5684596350e+01 -2.3757002616e+02 2.4141234133e+02 0.0000000000e+00 0.0000e+00 -1.0000e+00
<mgrwt>
<rscale>  4 0.23814777E+03</rscale>
<asrwt>0</asrwt>
<pdfrwt beam="1">  1       21 0.30739624E-01 0.23814777E+03</pdfrwt>
<pdfrwt beam="2">  1       21 0.20846440E+00 0.23814777E+03</pdfrwt>
<totfact> 0.11504265E+03</totfact>
</mgrwt>
</event>
<event>
 6      1 +2.5168323e+02 3.60045600e+02 7.54677100e-03 1.11471900e-01
       21 -1    0    0  503  502 +0.0000000000e+00 +0.0000000000e+00 +1.7289766957e+02 1.7289766957e+02 0.0000000000e+00 0.0000e+00 1.0000e+00
       21 -1    0    0  501  503 -0.0000000000e+00 -0.0000000000e+00 -1.5152380516e+03 1.5152380516e+03 0.0000000000e+00 0.0000e+00 1.0000e+00
        6  1    1    2  501    0 -1.0401031896e+01 -3.7242350811e+02 -1.0091905372e+03 1.0895879915e+03 1.7300000000e+02 0.0000e+00 1.0000e+00
       -6  1    1    2    0  504 -2.5150496869e+00 +2.3034255930e+02 -2.8232268481e+02 4.0335978785e+02 1.7300000000e+02 0.0000e+00 -1.0000e+00
       21  1    1    2  504  505 -3.6709198003e+01 +1.1161497051e+02 -6.6332992759e+01 1.3492787995e+02 0.0000000000e+00 0.0000e+00 1.0000e+00
       21  1    1    2  505  502 +4.9625279586e+01 +3.0465978305e+01 +1.5505832724e+01 6.0260061870e+01 0.0000000000e+00 0.0000e+00 1.0000e+00
<mgrwt>
<rscale>  4 0.36004557E+03</rscale>
<asrwt>0</asrwt>
<pdfrwt beam="1">  1       21 0.26599642E-01 0.36004557E+03</pdfrwt>
<pdfrwt beam="2">  1       21 0.23311355E+00 0.36004557E+03</pdfrwt>
<totfact> 0.97634420E+02</totfact>
</mgrwt>
</event>
<event>
 6      1 +2.5168323e+02 2.96043300e+02 7.54677100e-03 1.17132900e-01
       21 -1    0    0  505  502 +0.0000000000e+00 +0.0000000000e+00 +1.5436685709e+02 1.5436685709e+02 0.0000000000e+00 0.0000e+00 -1.0000e+00
       21 -1    0    0  504  503 -0.0000000000e+00 -0.0000000000e+00 -1.0661576152e+03 1.0661576152e+03 0.0000000000e+00 0.0000e+00 -1.0000e+00
        6  1    1    2  501    0 +2.3269569776e+02 -3.1917353114e+01 -5.6297615235e+02 6.3406399780e+02 1.7300000000e+02 0.0000e+00 -1.0000e+00
       -6  1    1    2    0  502 -2.0690106668e+02 +3.2713358290e+01 -1.3538534062e+02 3.0353979255e+02 1.7300000000e+02 0.0000e+00 -1.0000e+00
       21  1    1    2  504  501 +4.6888028835e+01 +4.4551761965e+01 -1.7946529615e+02 1.9076461743e+02 0.0000000000e+00 0.0000e+00 1.0000e+00
       21  1    1    2  505  503 -7.2682659911e+01 -4.5347767141e+01 -3.3963968972e+01 9.2156064503e+01 0.0000000000e+00 0.0000e+00 -1.0000e+00
<mgrwt>
<rscale>  4 0.29604331E+03</rscale>
<asrwt>0</asrwt>
<pdfrwt beam="1">  1       21 0.23748747E-01 0.29604331E+03</pdfrwt>
<pdfrwt beam="2">  1       21 0.16402425E+00 0.29604331E+03</pdfrwt>
<totfact> 0.36429971E+03</totfact>
</mgrwt>
</event>
<event>
 6      1 +2.5168323e+02 1.96638200e+02 7.54677100e-03 1.17132900e-01
       21 -1    0    0  505  502 +0.0000000000e+00 +0.0000000000e+00 +5.4950327642e+02 5.4950327642e+02 0.0000000000e+00 0.0000e+00 1.0000e+00
       21 -1    0    0  504  503 -0.0000000000e+00 -0.0000000000e+00 -7.5993027133e+02 7.5993027133e+02 0.0000000000e+00 0.0000e+00 -1.0000e+00
        6  1    1    2  501    0 +9.9225759486e+01 +7.8383273962e+01 -1.8741434709e+02 2.8468021793e+02 1.7300000000e+02 0.0000e+00 1.0000e+00
       -6  1    1    2    0  502 -4.6219144463e+01 -4.1683440591e+01 -2.4230497073e+02 3.0416182761e+02 1.7300000000e+02 0.0000e+00 -1.0000e+00
       21  1    1    2  504  501 -5.4192966696e+01 +1.4879742592e+01 -2.4605580122e+02 2.5239203968e+02 0.0000000000e+00 0.0000e+00 -1.0000e+00
       21  1    1    2  505  503 +1.1863516736e+00 -5.1579575963e+01 +4.6534812414e+02 4.6819946254e+02 0.0000000000e+00 0.0000e+00 1.0000e+00
<mgrwt>
<rscale>  4 0.19663825E+03</rscale>
<asrwt>0</asrwt>
<pdfrwt beam="1">  1       21 0.84538966E-01 0.19663825E+03</pdfrwt>
<pdfrwt beam="2">  1       21 0.11691235E+00 0.19663825E+03</pdfrwt>
<totfact> 0.68031430E+02</totfact>
</mgrwt>
</event>
<event>
 6      1 +2.5168323e+02 1.87770800e+02 7.54677100e-03 1.03924000e-01
       21 -1    0    0  504  502 +0.0000000000e+00 +0.0000000000e+00 +5.3488695315e+01 5.3488695315e+01 0.0000000000e+00 0.0000e+00 -1.0000e+00
       21 -1    0    0  501  503 -0.0000000000e+00 -0.0000000000e+00 -1.1384413373e+03 1.1384413373e+03 0.0000000000e+00 0.0000e+00 -1.0000e+00
        6  1    1    2  501    0 +4.7797797549e+00 +6.4012060066e+01 -5.8019620288e+02 6.0883250896e+02 1.7300000000e+02 0.0000e+00 -1.0000e+00
       -6  1    1    2    0  505 +3.8380185990e+00 -8.6190945131e+01 -4.2253110067e+02 4.6465593770e+02 1.7300000000e+02 0.0000e+00 -1.0000e+00
       21  1    1    2  504  503 +2.8462591247e+01 +3.0523817659e+01 -2.1875994307e+01 4.7120926051e+01 0.0000000000e+00 0.0000e+00 -1.0000e+00
       21  1    1    2  505  502 -3.7080389600e+01 -8.3449325939e+00 -6.0349344155e+01 7.1320659930e+01 0.0000000000e+00 0.0000e+00 1.0000e+00
<mgrwt>
<rscale>  4 0.18777077E+03</rscale>
<asrwt>0</asrwt>
<pdfrwt beam="1">  1       21 0.82290300E-02 0.18777077E+03</pdfrwt>
<pdfrwt beam="2">  1       21 0.17514482E+00 0.18777077E+03</pdfrwt>
<totfact> 0.22522100E+04</totfact>
</mgrwt>
</event>
<event>
 6      1 +2.5168323e+02 3.91506000e+02 7.54677100e-03 1.16820100e-01
       21 -1    0    0  504  502 +0.0000000000e+00 +0.0000000000e+00 +4.5474429856e+02 4.5474429856e+02 0.0000000000e+00 0.0000e+00 1.0000e+00
       21 -1    0    0  501  503 -0.0000000000e+00 -0.0000000000e+00 -4.8917472514e+02 4.8917472514e+02 0.0000000000e+00 0.0000e+00 -1.0000e+00
        6  1    1    2  501    0 +2.7187263186e+02 +2.4694785639e+02 -9.8694076344e+00 4.0610882401e+02 1.7300000000e+02 0.0000e+00 -1.0000e+00
       -6  1    1    2    0  505 -2.2641162536e+02 -2.4837575108e+02 +2.7642967884e+01 3.7900642672e+02 1.7300000000e+02 0.0000e+00 -1.0000e+00
       21  1    1    2  504  503 -2.8257504743e+01 +1.2609203234e+01 -1.0112556786e+02 1.0575376615e+02 0.0000000000e+00 0.0000e+00 -1.0000e+00
       21  1    1    2  505  502 -1.7203501760e+01 -1.1181308552e+01 +4.8921581031e+01 5.3050006827e+01 0.0000000000e+00 0.0000e+00 1.0000e+00
<mgrwt>
<rscale>  4 0.39150605E+03</rscale>
<asrwt>0</asrwt>
<pdfrwt beam="1">  1       21 0.69960661E-01 0.39150605E+03</pdfrwt>
<pdfrwt beam="2">  1       21 0.75257650E-01 0.39150605E+03</pdfrwt>
<totfact> 0.25988568E+03</totfact>
</mgrwt>
</event>
<event>
 6      1 +2.5168323e+02 1.73994700e+02 7.54677100e-03 1.09842800e-01
       21 -1    0    0  503  502 +0.0000000000e+00 +0.0000000000e+00 +5.5964961785e+02 5.5964961785e+02 0.0000000000e+00 0.0000e+00 1.0000e+00
       21 -1    0    0  504  503 -0.0000000000e+00 -0.0000000000e+00 -1.9314114788e+02 1.9314114788e+02 0.0000000000e+00 0.0000e+00 1.0000e+00
        6  1    1    2  501    0 +3.2197596150e+01 -3.7555425199e+00 +3.8600383154e+01 1.8019372596e+02 1.7300000000e+02 0.0000e+00 -1.0000e+00
       -6  1    1    2    0  505 +3.1140851401e+01 +3.0859013690e+01 +6.1055463994e+00 1.7857297962e+02 1.7300000000e+02 0.0000e+00 1.0000e+00
       21  1    1    2  504  501 -9.1733355375e+01 -3.7716574287e+01 +3.4329872141e+01 1.0495755611e+02 0.0000000000e+00 0.0000e+00 1.0000e+00
       21  1    1    2  505  502 +2.8394907824e+01 +1.0613103117e+01 +2.8747266828e+02 2.8906650404e+02 0.0000000000e+00 0.0000e+00 1.0000e+00
<mgrwt>
<rscale>  4 0.17399465E+03</rscale>
<asrwt>0</asrwt>
<pdfrwt beam="1">  1       21 0.86099940E-01 0.17399465E+03</pdfrwt>
<pdfrwt beam="2">  1       21 0.29714023E-01 0.17399465E+03</pdfrwt>
<totfact> 0.12792676E+04</totfact>
</mgrwt>
</event>
<event>
 6      1 +2.5168323e+02 4.20997200e+02 7.54677100e-03 1.09842800e-01
       21 -1    0    0  505  502 +0.0000000000e+00 +0.0000000000e+00 +9.3854316755e+02 9.3854316755e+02 0.0000000000e+00 0.0000e+00 -1.0000e+00
       21 -1    0    0  502  503 -0.0000000000e+00 -0.0000000000e+00 -3.6944525164e+02 3.6944525164e+02 0.0000000000e+00 0.0000e+00 1.0000e+00
        6  1    1    2  501    0 +2.9853565522e+02 -9.2529917359e+00 +4.4949576621e+02 5.6673150533e+02 1.7300000000e+02 0.0000e+00 1.0000e+00
       -6  1    1    2    0  503 -4.0900921449e+02 -6.6687497276e+01 -1.1683078066e+02 4.6401960210e+02 1.7300000000e+02 0.0000e+00 -1.0000e+00
       21  1    1    2  504  501 +8.1057464501e+01 +7.7258340454e+01 +1.5968440512e+02 1.9503403026e+02 0.0000000000e+00 0.0000e+00 1.0000e+00
       21  1    1    2  505  504 +2.9416094766e+01 -1.3178514420e+00 +7.6748525242e+01 8.2203281507e+01 0.0000000000e+00 0.0000e+00 -1.0000e+00
<mgrwt>
<rscale>  4 0.42099724E+03</rscale>
<asrwt>0</asrwt>
<pdfrwt beam="1">  1       21 0.14439126E+00 0.42099724E+03</pdfrwt>
<pdfrwt beam="2">  1       21 0.56837731E-01 0.42099724E+03</pdfrwt>
<totfact> 0.81963218E+02</totfact>
</mgrwt>
</event>
<event>
 6      1 +2.5168323e+02 2.93520100e+02 7.54677100e-03 1.15942100e-01
       21 -1    0    0  504  502 +0.0000000000e+00 +0.0000000000e+00 +9.2669638582e+02 9.2669638582e+02 0.0000000000e+00 0.0000e+00 1.0000e+00
       21 -1    0    0  501  503 -0.0000000000e+00 -0.0000000000e+00 -5.9031826964e+02 5.9031826964e+02 0.0000000000e+00 0.0000e+00 1.0000e+00
        6  1    1    2  501    0 -1.0743946762e+02 -2.3084502033e+02 +6.5888703726e+02 7.2725084426e+02 1.7300000000e+02 0.0000e+00 1.0000e+00
       -6  1    1    2    0  502 +3.1022027740e+01 +2.0020290345e+02 +1.4528207022e+02 3.0344595677e+02 1.7300000000e+02 0.0000e+00 1.0000e+00
       21  1    1    2  504  505 +5.9670447999e+01 +4.7307154630e+01 -4.5087574031e+02 4.5726082539e+02 0.0000000000e+00 0.0000e+00 1.0000e+00
       21  1    1    2  505  503 +1.6746991880e+01 -1.6665037748e+01 -1.6915250996e+01 2.9057029037e+01 0.0000000000e+00 0.0000e+00 -1.0000e+00
<mgrwt>
<rscale>  4 0.29352005E+03</rscale>
<asrwt>0</asrwt>
<pdfrwt beam="1">  1       21 0.14256867E+00 0.29352005E+03</pdfrwt>
<pdfrwt beam="2">  1       21 0.90818195E-01 0.29352005E+03</pdfrwt>
<totfact> 0.31853518E+02</totfact>
</mgrwt>
</event>
<event>
 6      1 +2.5168323e+02 2.18353800e+02 7.54677100e-03 1.16820100e-01
       21 -1    0    0  505  502 +0.0000000000e+00 +0.0000000000e+00 +2.6826681132e+02 2.6826681132e+02 0.0000000000e+00 0.0000e+00 -1.0000e+00
       21 -1    0    0  501  503 -0.0000000000e+00 -0.0000000000e+00 -2.8128541461e+02 2.8128541461e+02 0.0000000000e+00 0.0000e+00 -1.0000e+00
        6  1    1    2  501    0 -1.0030396806e+02 +1.0068668712e+02 -8.5358313995e+01 2.3961163732e+02 1.7300000000e+02 0.0000e+00 -1.0000e+00
       -6  1    1    2    0  502 +4.3861533348e+01 -1.2172683686e+02 +5.8405220062e+01 2.2378879921e+02 1.7300000000e+02 0.0000e+00 -1.0000e+00
       21  1    1    2  504  503 +2.5008566026e+01 +1.1557040702e+01 -2.3605226187e+01 3.6279474470e+01 0.0000000000e+00 0.0000e+00 1.0000e+00
       21  1    1    2  505  504 +3.1433868686e+01 +9.4831090395e+00 +3.7539716827e+01 4.9872314937e+01 0.0000000000e+00 0.0000e+00 1.0000e+00
<mgrwt>
<rscale>  4 0.21835385E+03</rscale>
<asrwt>0</asrwt>
<pdfrwt beam="1">  1       21 0.41271817E-01 0.21835385E+03</pdfrwt>
<pdfrwt beam="2">  1       21 0.43274679E-01 0.21835385E+03</pdfrwt>
<totfact> 0.28622826E+04</totfact>
</mgrwt>
</event>
<event>
 6      1 +2.5168323e+02 1.97133100e+02 7.54677100e-03 1.17132900e-01
       21 -1    0    0  503  502 +0.0000000000e+00 +0.0000000000e+00 +8.8460184558e+02 8.8460184558e+02 0.0000000000e+00 0.0000e+00 1.0000e+00
       21 -1    0    0  504  503 -0.0000000000e+00 -0.0000000000e+00 -2.4059002993e+02 2.4059002993e+02 0.0000000000e+00 0.0000e+00 1.0000e+00
        6  1    1    2  501    0 -7.2792933022e+01 +3.4665784897e+01 +2.8613287214e+02 3.4394992115e+02 1.7300000000e+02 0.0000e+00 1.0000e+00
       -6  1    1    2    0  505 -7.7519982614e+00 -1.1432914435e+02 -1.3597376521e+02 2.4809093404e+02 1.7300000000e+02 0.0000e+00 1.0000e+00
       21  1    1    2  504  501 +2.7983628182e+01 +1.3756618111e+01 -9.7164327508e-01 3.1197308838e+01 0.0000000000e+00 0.0000e+00 1.0000e+00
       21  1    1    2  505  502 +5.2561303102e+01 +6.5906741345e+01 +4.9482435200e+02 5.0195371148e+02 0.0000000000e+00 0.0000e+00 1.0000e+00
<mgrwt>
<rscale>  4 0.19713312E+03</rscale>
<asrwt>0</asrwt>
<pdfrwt beam="1">  1       21 0.13609259E+00 0.19713312E+03</pdfrwt>
<pdfrwt beam="2">  1       21 0.37013851E-01 0.19713312E+03</pdfrwt>
<totfact> 0.26983188E+03</totfact>
</mgrwt>
</event>
<event>
 6      1 +2.5168323e+02 1.96420100e+02 7.54677100e-03 1.16820100e-01
       21 -1    0    0  505  502 +0.0000000000e+00 +0.0000000000e+00 +4.7369346487e+02 4.7369346487e+02 0.0000000000e+00 0.0000e+00 1.0000e+00
       21 -1    0    0  501  503 -0.0000000000e+00 -0.0000000000e+00 -7.2769715249e+02 7.2769715249e+02 0.0000000000e+00 0.0000e+00 1.0000e+00
        6  1    1    2  501    0 +4.2162138219e+01 +6.3652115154e+01 -4.8718827652e+02 5.2259989900e+02 1.7300000000e+02 0.0000e+00 1.0000e+00
       -6  1    1    2    0  502 -7.4500690249e+01 -5.3583464888e+01 -1.9829941225e+01 1.9683436470e+02 1.7300000000e+02 0.0000e+00 -1.0000e+00
       21  1    1    2  504  503 +1.3563482291e+01 +1.8743268985e+01 -1.1248645599e+02 1.1484111182e+02 0.0000000000e+00 0.0000e+00 -1.0000e+00
       21  1    1    2  505  504 +1.8775069739e+01 -2.8811919251e+01 +3.6550098612e+02 3.6711524184e+02 0.0000000000e+00 0.0000e+00 1.0000e+00
<mgrwt>
<rscale>  4 0.19642012E+03</rscale>
<asrwt>0</asrwt>
<pdfrwt beam="1">  1       21 0.72875917E-01 0.19642012E+03</pdfrwt>
<pdfrwt beam="2">  1       21 0.11195341E+00 0.19642012E+03</pdfrwt>
<totfact> 0.10567698E+03</totfact>
</mgrwt>
</event>
<event>
 6      1 +2.5168323e+02 1.75432100e+02 7.54677100e-03 1.17132900e-01
       21 -1    0    0  503  502 +0.0000000000e+00 +0.0000000000e+00 +5.9726144906e+02 5.9726144906e+02 0.0000000000e+00 0.0000e+00 1.0000e+00
       21 -1    0    0  504  503 -0.0000000000e+00 -0.0000000000e+00 -1.1889370068e+03 1.1889370068e+03 0.0000000000e+00 0.0000e+00 -1.0000e+00
        6  1    1    2  501    0 +8.6165479493e+01 +7.0406171514e+01 -2.5910345403e+02 3.3082490646e+02 1.7300000000e+02 0.0000e+00 -1.0000e+00
       -6  1    1    2    0  505 +1.0235620259e+02 +9.9814503601e+00 -2.1193910612e+02 2.9227317062e+02 1.7300000000e+02 0.0000e+00 1.0000e+00
       21  1    1    2  504  501 -1.2008374188e+02 -8.0809070599e+01 -6.3139527489e+02 6.4777326598e+02 0.0000000000e+00 0.0000e+00 -1.0000e+00
       21  1    1    2  505  502 -6.8437940205e+01 +4.2144872425e-01 +5.1076227730e+02 5.1532711281e+02 0.0000000000e+00 0.0000e+00 1.0000e+00
<mgrwt>
<rscale>  4 0.17543211E+03</rscale>
<asrwt>0</asrwt>
<pdfrwt beam="1">  1       21 0.91886377E-01 0.17543211E+03</pdfrwt>
<pdfrwt beam="2">  1       21 0.18291339E+00 0.17543211E+03</pdfrwt>
<totfact> 0.17834049E+02</totfact>
</mgrwt>
</event>
<event>
 6      1 +2.5168323e+02 2.53021400e+02 7.54677100e-03 1.12989000e-01
       21 -1    0    0  501  502 +0.0000000000e+00 +0.0000000000e+00 +8.4857688595e+02 8.4857688595e+02 0.0000000000e+00 0.0000e+00 -1.0000e+00
       21 -1    0    0  502  503 -0.0000000000e+00 -0.0000000000e+00 -4.3906894275e+02 4.3906894275e+02 0.0000000000e+00 0.0000e+00 -1.0000e+00
        6  1    1    2  501    0 -1.6860545528e+02 -8.9238101741e+01 +4.7720494729e+02 5.4225897879e+02 1.7300000000e+02 0.0000e+00 -1.0000e+00
       -6  1    1    2    0  504 +1.9062311849e+02 -6.6806444485e+00 +2.6961463796e+02 3.7283086958e+02 1.7300000000e+02 0.0000e+00 1.0000e+00
       21  1    1    2  504  505 +4.1260615307e+01 +1.3828226190e+01 -4.5848437350e+01 6.3211845587e+01 0.0000000000e+00 0.0000e+00 -1.0000e+00
       21  1    1    2  505  503 -6.3278278515e+01 +8.2090520000e+01 -2.9146320471e+02 3.0934413475e+02 0.0000000000e+00 0.0000e+00 -1.0000e+00
<mgrwt>
<rscale>  4 0.25302141E+03</rscale>
<asrwt>0</asrwt>
<pdfrwt beam="1">  1       21 0.13055029E+00 0.25302141E+03</pdfrwt>
<pdfrwt beam="2">  1       21 0.67549068E-01 0.25302141E+03</pdfrwt>
<totfact> 0.81008111E+02</totfact>
</mgrwt>
</event>
<event>
 6      1 +2.5168323e+02 2.26136900e+02 7.54677100e-03 1.17132900e-01
       21 -1    0    0  505  502 +0.0000000000e+00 +0.0000000000e+00 +4.1854974343e+02 4.1854974343e+02 0.0000000000e+00 0.0000e+00 1.0000e+00
       21 -1    0    0  504  503 -0.0000000000e+00 -0.0000000000e+00 -1.6505523300e+03 1.6505523300e+03 0.0000000000e+00 0.0000e+00 1.0000e+00
        6  1    1    2  501    0 +2.2158529813e+02 +1.8744878963e+02 +7.4012981882e+01 3.4589595917e+02 1.7300000000e+02 0.0000e+00 1.0000e+00
       -6  1    1    2    0  502 -8.0667465998e+01 -1.5903106159e+02 -8.5180421490e+02 8.8729788636e+02 1.7300000000e+02 0.0000e+00 1.0000e+00
       21  1    1    2  504  501 -2.6061139918e+01 +8.9380506285e+01 -6.0536921655e+02 6.1248669069e+02 0.0000000000e+00 0.0000e+00 1.0000e+00
       21  1    1    2  505  503 -1.1485669221e+02 -1.1779823433e+02 +1.5115786299e+02 2.2342153723e+02 0.0000000000e+00 0.0000e+00 1.0000e+00
<mgrwt>
<rscale>  4 0.22613687E+03</rscale>
<asrwt>0</asrwt>
<pdfrwt beam="1">  1       21 0.64392269E-01 0.22613687E+03</pdfrwt>
<pdfrwt beam="2">  1       21 0.25393113E+00 0.22613687E+03</pdfrwt>
<totfact> 0.13382978E+02</totfact>
</mgrwt>
</event>
<event>
 6      1 +2.5168323e+02 1.93373000e+02 7.54677100e-03 1.17132900e-01
       21 -1    0    0  503  502 +0.0000000000e+00 +0.0000000000e+00 +2.7742596201e+02 2.7742596201e+02 0.0000000000e+00 0.0000e+00 -1.0000e+00
       21 -1    0    0  504  503 -0.0000000000e+00 -0.0000000000e+00 -3.0346596290e+02 3.0346596290e+02 0.0000000000e+00 0.0000e+00 1.0000e+00
        6  1    1    2  501    0 -7.6609140232e+01 +4.4100380705e+01 +9.4527130526e+01 2.1605134193e+02 1.7300000000e+02 0.0000e+00 -1.0000e+00
       -6  1    1    2    0  505 +7.3771630762e+01 -3.8557966652e+01 -6.9370012770e+01 2.0413272391e+02 1.7300000000e+02 0.0000e+00 1.0000e+00
       21  1    1    2  504  501 +1.6619033123e+01 +2.6240056748e+01 -9.7814935956e+01 1.0262794228e+02 0.0000000000e+00 0.0000e+00 1.0000e+00
       21  1    1    2  505  502 -1.3781523654e+01 -3.1782470801e+01 +4.6617817313e+01 5.8079916800e+01 0.0000000000e+00 0.0000e+00 -1.0000e+00
<mgrwt>
<rscale>  4 0.19337300E+03</rscale>
<asrwt>0</asrwt>
<pdfrwt beam="1">  1       21 0.42680917E-01 0.19337300E+03</pdfrwt>
<pdfrwt beam="2">  1       21 0.46687071E-01 0.19337300E+03</pdfrwt>
<totfact> 0.23187991E+04</totfact>
</mgrwt>
</event>
<event>
 6      1 +2.5168323e+02 2.33688700e+02 7.54677100e-03 1.07240600e-01
       21 -1    0    0  505  502 +0.0000000000e+00 +0.0000000000e+00 +1.8921508445e+02 1.8921508445e+02 0.0000000000e+00 0.0000e+00 1.0000e+00
       21 -1    0    0  504  503 -0.0000000000e+00 -0.0000000000e+00 -6.7913807496e+02 6.7913807496e+02 0.0000000000e+00 0.0000e+00 1.0000e+00
        6  1    1    2  501    0 +1.0512849205e+02 -7.9009630910e+01 -3.8836662842e+02 4.4503051546e+02 1.7300000000e+02 0.0000e+00 -1.0000e+00
       -6  1    1    2    0  502 -9.7356118144e+01 +1.3250035714e+02 +4.0785236493e+01 2.4213011770e+02 1.7300000000e+02 0.0000e+00 1.0000e+00
       21  1    1    2  504  501 +4.4162398381e+01 -3.6448658716e+01 -6.7496213695e+01 8.8513055626e+01 0.0000000000e+00 0.0000e+00 1.0000e+00
       21  1    1    2  505  503 -5.1934772291e+01 -1.7042067514e+01 -7.4845384885e+01 9.2679470633e+01 0.0000000000e+00 0.0000e+00 1.0000e+00
<mgrwt>
<rscale>  4 0.23368870E+03</rscale>
<asrwt>0</asrwt>
<pdfrwt beam="1">  1       21 0.29110013E-01 0.23368870E+03</pdfrwt>
<pdfrwt beam="2">  1       21 0.10448278E+00 0.23368870E+03</pdfrwt>
<totfact> 0.81206551E+03</totfact>
</mgrwt>
</event>
<event>
 6      1 +2.5168323e+02 2.16408600e+02 7.54677100e-03 1.07240600e-01
       21 -1    0    0  505  502 +0.0000000000e+00 +0.0000000000e+00 +1.4800728626e+02 1.4800728626e+02 0.0000000000e+00 0.0000e+00 -1.0000e+00
       21 -1    0    0  504  503 -0.0000000000e+00 -0.0000000000e+00 -1.2364952718e+03 1.2364952718e+03 0.0000000000e+00 0.0000e+00 1.0000e+00
        6  1    1    2  501    0 -1.7144611144e+02 +1.2456605625e+02 -2.3686520407e+02 3.6186267615e+02 1.7300000000e+02 0.0000e+00 -1.0000e+00
       -6  1    1    2    0  502 +8.2530363903e+01 -2.5992663148e+01 -6.4492706844e+01 2.0389994787e+02 1.7300000000e+02 0.0000e+00 -1.0000e+00
       21  1    1    2  504  501 -2.7736807505e+01 -4.7459584547e+01 -6.3501769167e+01 8.3989388278e+01 0.0000000000e+00 0.0000e+00 1.0000e+00
       21  1    1    2  505  503 +1.1665255504e+02 -5.1113808556e+01 -7.2362830546e+02 7.3475054575e+02 0.0000000000e+00 0.0000e+00 1.0000e+00
<mgrwt>
<rscale>  4 0.21640857E+03</rscale>
<asrwt>0</asrwt>
<pdfrwt beam="1">  1       21 0.22770353E-01 0.21640857E+03</pdfrwt>
<pdfrwt beam="2">  1       21 0.19023003E+00 0.21640857E+03</pdfrwt>
<totfact> 0.27490079E+03</totfact>
</mgrwt>
</event>
<event>
 6      1 +2.5168323e+02 1.82539500e+02 7.54677100e-03 1.07064900e-01
       21 -1    0    0  504  502 +0.0000000000e+00 +0.0000000000e+00 +7.2017021515e+02 7.2017021515e+02 0.0000000000e+00 0.0000e+00 -1.0000e+00
       21 -1    0    0  501  503 -0.0000000000e+00 -0.0000000000e+00 -1.3444202298e+02 1.3444202298e+02 0.0000000000e+00 0.0000e+00 -1.0000e+00
        6  1    1    2  501    0 -6.5793962951e+00 -1.3632248367e+02 +1.2229744701e+02 2.5201740725e+02 1.7300000000e+02 0.0000e+00 -1.0000e+00
       -6  1    1    2    0  505 -2.4375851600e+01 -3.8250729755e+01 +1.9383873899e+02 2.6374183817e+02 1.7300000000e+02 0.0000e+00 -1.0000e+00
       21  1    1    2  504  503 +5.4488901807e+01 +1.7290123786e+02 +2.3130820003e+02 2.9388324531e+02 0.0000000000e+00 0.0000e+00 -1.0000e+00
       21  1    1    2  505  502 -2.3533653912e+01 +1.6719755667e+00 +3.8283806137e+01 4.4969747399e+01 0.0000000000e+00 0.0000e+00 1.0000e+00
<mgrwt>
<rscale>  4 0.18253951E+03</rscale>
<asrwt>0</asrwt>
<pdfrwt beam="1">  1       21 0.11079542E+00 0.18253951E+03</pdfrwt>
<pdfrwt beam="2">  1       21 0.20683389E-01 0.18253951E+03</pdfrwt>
<totfact> 0.14007339E+04</totfact>
</mgrwt>
</event>
<event>
 6      1 +2.5168323e+02 1.75969200e+02 7.54677100e-03 1.17132900e-01
       21 -1    0    0  505  502 +0.0000000000e+00 +0.0000000000e+00 +6.7494084219e+02 6.7494084219e+02 0.0000000000e+00 0.0000e+00 1.0000e+00
       21 -1    0    0  504  503 -0.0000000000e+00 -0.0000000000e+00 -6.5098914044e+02 6.5098914044e+02 0.0000000000e+00 0.0000e+00 1.0000e+00
        6  1    1    2  501    0 -5.8720427613e+00 -2.2370146046e+01 -4.4294666646e+02 4.7609416468e+02 1.7300000000e+02 0.0000e+00 1.0000e+00
       -6  1    1    2    0  502 +1.1639976738e+02 +2.9064366368e+01 -1.9521157117e+01 2.1143253963e+02 1.7300000000e+02 0.0000e+00 1.0000e+00
       21  1    1    2  504  501 -1.0332450091e+02 +3.1026386671e+01 -3.6641057349e+01 1.1393487720e+02 0.0000000000e+00 0.0000e+00 1.0000e+00
       21  1    1    2  505  503 -7.2032237030e+00 -3.7720606993e+01 +5.2306058267e+02 5.2446840112e+02 0.0000000000e+00 0.0000e+00 1.0000e+00
<mgrwt>
<rscale>  4 0.17596924E+03</rscale>
<asrwt>0</asrwt>
<pdfrwt beam="1">  1       21 0.10383705E+00 0.17596924E+03</pdfrwt>
<pdfrwt beam="2">  1       21 0.10015218E+00 0.17596924E+03</pdfrwt>
<totfact> 0.62546719E+02</totfact>
</mgrwt>
</event>
<event>
 6      1 +2.5168323e+02 3.72148800e+02 7.54677100e-03 1.09842800e-01
       21 -1    0    0  505  502 +0.0000000000e+00 +0.0000000000e+00 +5.0416220642e+02 5.0416220642e+02 0.0000000000e+00 0.0000e+00 -1.0000e+00
       21 -1    0    0  502  503 -0.0000000000e+00 -0.0000000000e+00 -4.3326625318e+02 4.3326625318e+02 0.0000000000e+00 0.0000e+00 -1.0000e+00
        6  1    1    2  501    0 +2.3910423578e+02 -1.4788254747e+02 +3.3391673717e+01 3.3178922117e+02 1.7300000000e+02 0.0000e+00 -1.0000e+00
       -6  1    1    2    0  503 -3.4116998658e+02 +1.5187288001e+02 -1.0242550549e+02 4.2412535364e+02 1.7300000000e+02 0.0000e+00 -1.0000e+00
       21  1    1    2  504  501 +7.1219963988e+01 -9.7925390865e+00 +5.3649350619e+01 8.9701894707e+01 0.0000000000e+00 0.0000e+00 1.0000e+00
       21  1    1    2  505  504 +3.0845786807e+01 +5.8022065457e+00 +8.6280434390e+01 9.1811990084e+01 0.0000000000e+00 0.0000e+00 1.0000e+00
<mgrwt>
<rscale>  4 0.37214883E+03</rscale>
<asrwt>0</asrwt>
<pdfrwt beam="1">  1       21 0.77563416E-01 0.37214883E+03</pdfrwt>
<pdfrwt beam="2">  1       21 0.66656347E-01 0.37214883E+03</pdfrwt>
<totfact> 0.27255335E+03</totfact>
</mgrwt>
</event>
<event>
 6      1 +2.5168323e+02 1.76166300e+02 7.54677100e-03 1.16820100e-01
       21 -1    0    0  505  502 +0.0000000000e+00 +0.0000000000e+00 +7.9816983006e+02 7.9816983006e+02 0.0000000000e+00 0.0000e+00 -1.0000e+00
       21 -1    0    0  501  503 -0.0000000000e+00 -0.0000000000e+00 -6.5590394708e+01 6.5590394708e+01 0.0000000000e+00 0.0000e+00 -1.0000e+00
        6  1    1    2  501    0 -7.8140634585e+00 -1.9788786398e+01 +3.4350278288e+02 3.8519581709e+02 1.7300000000e+02 0.0000e+00 -1.0000e+00
       -6  1    1    2    0  502 -4.4091580426e+01 +3.6811106644e+01 +3.6338433424e+02 4.0654187904e+02 1.7300000000e+02 0.0000e+00 -1.0000e+00
       21  1    1    2  504  503 +2.6036744928e+01 -1.4361514623e+01 -6.7024779404e+00 3.0480951416e+01 0.0000000000e+00 0.0000e+00 1.0000e+00
       21  1    1    2  505  504 +2.5868898957e+01 -2.6608056233e+00 +3.2394796170e+01 4.1541577230e+01 0.0000000000e+00 0.0000e+00 -1.0000e+00
<mgrwt>
<rscale>  4 0.17616628E+03</rscale>
<asrwt>0</asrwt>
<pdfrwt beam="1">  1       21 0.12279535E+00 0.17616628E+03</pdfrwt>
<pdfrwt beam="2">  1       21 0.10090830E-01 0.17616628E+03</pdfrwt>
<totfact> 0.40192492E+04</totfact>
</mgrwt>
</event>
<event>
 6      1 +2.5168323e+02 4.39032800e+02 7.54677100e-03 1.16519500e-01
       21 -1    0    0  505  502 +0.0000000000e+00 +0.0000000000e+00 +6.0201721799e+02 6.0201721799e+02 0.0000000000e+00 0.0000e+00 -1.0000e+00
       21 -1    0    0  504  503 -0.0000000000e+00 -0.0000000000e+00 -5.3313932517e+02 5.3313932517e+02 0.0000000000e+00 0.0000e+00 1.0000e+00
        6  1    1    2  501    0 +7.3492468564e+00 +6.6024470141e+01 +1.6078277894e+00 1.8532357432e+02 1.7300000000e+02 0.0000e+00 -1.0000e+00
       -6  1    1    2    0  503 -4.0235491078e+02 -1.1305379156e+02 +2.2848677304e+02 5.0676013998e+02 1.7300000000e+02 0.0000e+00 -1.0000e+00
       21  1    1    2  504  502 +1.4589262244e+01 +2.8002646501e+01 -8.4420347517e+00 3.2684288804e+01 0.0000000000e+00 0.0000e+00 1.0000e+00
       21  1    1    2  505  501 +3.8041640168e+02 +1.9026674920e+01 -1.5277467325e+02 4.1038854006e+02 0.0000000000e+00 0.0000e+00 1.0000e+00
<mgrwt>
<rscale>  4 0.35481172E+03</rscale>
<asrwt>0</asrwt>
<pdfrwt beam="1">  1       21 0.92618034E-01 0.43903277E+03</pdfrwt>
<pdfrwt beam="2">  1       21 0.82021435E-01 0.43903277E+03</pdfrwt>
<totfact> 0.10934041E+03</totfact>
</mgrwt>
</event>
<event>
 6      1 +2.5168323e+02 4.14475000e+02 7.54677100e-03 1.16820100e-01
       21 -1    0    0  505  502 +0.0000000000e+00 +0.0000000000e+00 +4.0089160930e+02 4.0089160930e+02 0.0000000000e+00 0.0000e+00 -1.0000e+00
       21 -1    0    0  501  503 -0.0000000000e+00 -0.0000000000e+00 -1.1568547595e+03 1.1568547595e+03 0.0000000000e+00 0.0000e+00 1.0000e+00
        6  1    1    2  501    0 +3.5468257286e+02 -4.5003462236e+01 -5.9740072172e+02 7.1738529495e+02 1.7300000000e+02 0.0000e+00 1.0000e+00
       -6  1    1    2    0  502 -3.3412332673e+02 +9.2478543306e+01 +9.2351084816e+01 3.9830691847e+02 1.7300000000e+02 0.0000e+00 -1.0000e+00
       21  1    1    2  504  503 +3.1146369760e+01 -4.2983235827e+01 -3.3720492114e+02 3.4135731097e+02 0.0000000000e+00 0.0000e+00 -1.0000e+00
       21  1    1    2  505  504 -5.1705615884e+01 -4.4918452428e+00 +8.6291407895e+01 1.0069684436e+02 0.0000000000e+00 0.0000e+00 -1.0000e+00
<mgrwt>
<rscale>  4 0.41447498E+03</rscale>
<asrwt>0</asrwt>
<pdfrwt beam="1">  1       21 0.61675633E-01 0.41447498E+03</pdfrwt>
<pdfrwt beam="2">  1       21 0.17797765E+00 0.41447498E+03</pdfrwt>
<totfact> 0.38460890E+02</totfact>
</mgrwt>
</event>
<event>
 6      1 +2.5168323e+02 2.79441700e+02 7.54677100e-03 9.87464100e-02
       21 -1    0    0  503  502 +0.0000000000e+00 +0.0000000000e+00 +3.0599665461e+02 3.0599665461e+02 0.0000000000e+00 0.0000e+00 1.0000e+00
       21 -1    0    0  505  503 -0.0000000000e+00 -0.0000000000e+00 -6.2101775504e+02 6.2101775504e+02 0.0000000000e+00 0.0000e+00 -1.0000e+00
        6  1    1    2  501    0 +2.2658350687e+02 +3.3921079208e+01 +1.7151373331e+02 3.3441992452e+02 1.7300000000e+02 0.0000e+00 1.0000e+00
       -6  1    1    2    0  504 -1.7891525110e+02 -3.3349636896e+01 -2.6692360839e+02 3.6646975056e+02 1.7300000000e+02 0.0000e+00 -1.0000e+00
       21  1    1    2  504  502 -2.0597475196e+01 -5.7142821601e+00 -5.1336290585e+01 5.5608666016e+01 0.0000000000e+00 0.0000e+00 -1.0000e+00
       21  1    1    2  505  501 -2.7070780580e+01 +5.1428398485e+00 -1.6827493476e+02 1.7051606855e+02 0.0000000000e+00 0.0000e+00 -1.0000e+00
<mgrwt>
<rscale>  4 0.27944169E+03</rscale>
<asrwt>0</asrwt>
<pdfrwt beam="1">  1       21 0.47076409E-01 0.27944169E+03</pdfrwt>
<pdfrwt beam="2">  1       21 0.95541192E-01 0.27944169E+03</pdfrwt>
<totfact> 0.37147166E+03</totfact>
</mgrwt>
</event>
<event>
 6      1 +2.5168323e+02 1.89563700e+02 7.54677100e-03 1.11671100e-01
       21 -1    0    0  503  502 +0.0000000000e+00 +0.0000000000e+00 +1.3255748973e+03 1.3255748973e+03 0.0000000000e+00 0.0000e+00 1.0000e+00
       21 -1    0    0  501  503 -0.0000000000e+00 -0.0000000000e+00 -9.6404030945e+01 9.6404030945e+01 0.0000000000e+00 0.0000e+00 1.0000e+00
        6  1    1    2  501    0 -1.0348651589e+02 -9.4809713658e+01 +3.3438157879e+02 4.0179395343e+02 1.7300000000e+02 0.0000e+00 1.0000e+00
       -6  1    1    2    0  504 +3.7418744014e+01 -4.7192989602e+01 +1.4258522360e+02 2.3213549203e+02 1.7300000000e+02 0.0000e+00 -1.0000e+00
       21  1    1    2  504  505 -1.2271182102e+00 +9.8741031707e+01 +6.5386226457e+02 6.6127691490e+02 0.0000000000e+00 0.0000e+00 1.0000e+00
       21  1    1    2  505  502 +6.7294890087e+01 +4.3261671552e+01 +9.8341799357e+01 1.2677256785e+02 0.0000000000e+00 0.0000e+00 1.0000e+00
<mgrwt>
<rscale>  4 0.18956370E+03</rscale>
<asrwt>0</asrwt>
<pdfrwt beam="1">  1       21 0.20393459E+00 0.18956370E+03</pdfrwt>
<pdfrwt beam="2">  1       21 0.14831390E-01 0.18956370E+03</pdfrwt>
<totfact> 0.50892089E+03</totfact>
</mgrwt>
</event>
<event>
 6      1 +2.5168323e+02 3.51228700e+02 7.54677100e-03 1.17132900e-01
       21 -1    0    0  505  502 +0.0000000000e+00 +0.0000000000e+00 +2.9074878393e+02 2.9074878393e+02 0.0000000000e+00 0.0000e+00 -1.0000e+00
       21 -1    0    0  504  503 -0.0000000000e+00 -0.0000000000e+00 -1.3366539137e+03 1.3366539137e+03 0.0000000000e+00 0.0000e+00 -1.0000e+00
        6  1    1    2  501    0 +2.0211432235e+02 +2.5534682949e+02 -9.1258361000e+02 9.8427132838e+02 1.7300000000e+02 0.0000e+00 -1.0000e+00
       -6  1    1    2    0  502 -2.6874049035e+01 -7.3586365505e+01 -3.7680506746e+01 1.9361298585e+02 1.7300000000e+02 0.0000e+00 -1.0000e+00
       21  1    1    2  504  501 -3.0560943527e+01 +1.1756388002e+01 -1.8801222308e+02 1.9084229080e+02 0.0000000000e+00 0.0000e+00 1.0000e+00
       21  1    1    2  505  503 -1.4467932979e+02 -1.9351685199e+02 +9.2371210016e+01 2.5867609265e+02 0.0000000000e+00 0.0000e+00 -1.0000e+00
<mgrwt>
<rscale>  4 0.30118481E+03</rscale>
<asrwt>0</asrwt>
<pdfrwt beam="1">  1       21 0.44730582E-01 0.35122866E+03</pdfrwt>
<pdfrwt beam="2">  1       21 0.20563906E+00 0.35122866E+03</pdfrwt>
<totfact> 0.51528535E+02</totfact>
</mgrwt>
</event>
<event>
 6      1 +2.5168323e+02 2.14891400e+02 7.54677100e-03 1.15942100e-01
       21 -1    0    0  504  502 +0.0000000000e+00 +0.0000000000e+00 +1.7456839871e+02 1.7456839871e+02 0.0000000000e+00 0.0000e+00 1.0000e+00
       21 -1    0    0  501  503 -0.0000000000e+00 -0.0000000000e+00 -4.5122660184e+02 4.5122660184e+02 0.0000000000e+00 0.0000e+00 -1.0000e+00
        6  1    1    2  501    0 -1.1757227174e+02 -7.1829594083e+01 -1.2267298735e+02 2.5290391751e+02 1.7300000000e+02 0.0000e+00 1.0000e+00
       -6  1    1    2    0  502 +1.0997967994e+02 +5.0955067238e+01 -2.7430829778e+01 2.1301032675e+02 1.7300000000e+02 0.0000e+00 -1.0000e+00
       21  1    1    2  504  505 -3.5284049531e+00 +5.7839228370e+01 -8.7669525275e+01 1.0508935075e+02 0.0000000000e+00 0.0000e+00 -1.0000e+00
       21  1    1    2  505  503 +1.1120996751e+01 -3.6964701525e+01 -3.8884860724e+01 5.4791405540e+01 0.0000000000e+00 0.0000e+00 -1.0000e+00
<mgrwt>
<rscale>  4 0.21489135E+03</rscale>
<asrwt>0</asrwt>
<pdfrwt beam="1">  1       21 0.26856677E-01 0.21489135E+03</pdfrwt>
<pdfrwt beam="2">  1       21 0.69419477E-01 0.21489135E+03</pdfrwt>
<totfact> 0.24605670E+04</totfact>
</mgrwt>
</event>
<event>
 6      1 +2.5168323e+02 1.83710900e+02 7.54677100e-03 1.11671100e-01
       21 -1    0    0  503  502 +0.0000000000e+00 +0.0000000000e+00 +2.2396026578e+02 2.2396026578e+02 0.0000000000e+00 0.0000e+00 1.0000e+00
       21 -1    0    0  501  503 -0.0000000000e+00 -0.0000000000e+00 -1.3000293628e+03 1.3000293628e+03 0.0000000000e+00 0.0000e+00 1.0000e+00
        6  1    1    2  501    0 -3.4082288960e+01 -4.1636746298e+01 -4.3176420557e+02 4.6823557135e+02 1.7300000000e+02 0.0000e+00 -1.0000e+00
       -6  1    1    2    0  504 -1.1367242587e+02 +3.2640575495e+01 -7.7824060333e+02 8.0596170148e+02 1.7300000000e+02 0.0000e+00 1.0000e+00
       21  1    1    2  504  505 +9.8019097067e+01 -2.6732502682e+01 -1.0072456462e+00 1.0160405815e+02 0.0000000000e+00 0.0000e+00 -1.0000e+00
       21  1    1    2  505  502 +4.9735617765e+01 +3.5728673485e+01 +1.3494295749e+02 1.4818829765e+02 0.0000000000e+00 0.0000e+00 1.0000e+00
<mgrwt>
<rscale>  4 0.18371087E+03</rscale>
<asrwt>0</asrwt>
<pdfrwt beam="1">  1       21 0.34455425E-01 0.18371087E+03</pdfrwt>
<pdfrwt beam="2">  1       21 0.20000452E+00 0.18371087E+03</pdfrwt>
<totfact> 0.11011080E+03</totfact>
</mgrwt>
</event>
<event>
 6      1 +2.5168323e+02 2.50477800e+02 7.54677100e-03 1.11671100e-01
       21 -1    0    0  503  502 +0.0000000000e+00 +0.0000000000e+00 +3.2496654498e+02 3.2496654498e+02 0.0000000000e+00 0.0000e+00 1.0000e+00
       21 -1    0    0  501  503 -0.0000000000e+00 -0.0000000000e+00 -5.0121423919e+02 5.0121423919e+02 0.0000000000e+00 0.0000e+00 -1.0000e+00
        6  1    1    2  501    0 +1.6748640789e+02 -5.1121765508e+01 -2.9156975558e+02 3.8158492385e+02 1.7300000000e+02 0.0000e+00 -1.0000e+00
       -6  1    1    2    0  504 -5.9466220173e+00 -2.4188815442e+00 +4.3185263003e+01 1.7842415824e+02 1.7300000000e+02 0.0000e+00 1.0000e+00
       21  1    1    2  504  505 -1.7346836446e+02 +1.0032549184e+02 +3.1065876425e+01 2.0278453210e+02 0.0000000000e+00 0.0000e+00 1.0000e+00
       21  1    1    2  505  502 +1.1928578593e+01 -4.6784844786e+01 +4.1070921951e+01 6.3387169985e+01 0.0000000000e+00 0.0000e+00 1.0000e+00
<mgrwt>
<rscale>  4 0.22877941E+03</rscale>
<asrwt>0</asrwt>
<pdfrwt beam="1">  1       21 0.49994853E-01 0.25047775E+03</pdfrwt>
<pdfrwt beam="2">  1       21 0.77109883E-01 0.25047775E+03</pdfrwt>
<totfact> 0.54710886E+03</totfact>
</mgrwt>
</event>
<event>
 6      1 +2.5168323e+02 3.18560700e+02 7.54677100e-03 1.05831300e-01
       21 -1    0    0  504  502 +0.0000000000e+00 +0.0000000000e+00 +6.5612179320e+02 6.5612179320e+02 0.0000000000e+00 0.0000e+00 -1.0000e+00
       21 -1    0    0  501  503 -0.0000000000e+00 -0.0000000000e+00 -7.8392731865e+02 7.8392731865e+02 0.0000000000e+00 0.0000e+00 -1.0000e+00
        6  1    1    2  501    0 -3.9591092360e+02 +1.1690016843e+02 -9.9722941347e+01 4.5856817796e+02 1.7300000000e+02 0.0000e+00 -1.0000e+00
       -6  1    1    2    0  505 +2.2262873515e+02 -6.3953315000e+01 -4.2764048460e+02 5.1619663335e+02 1.7300000000e+02 0.0000e+00 -1.0000e+00
       21  1    1    2  504  503 +5.5976582509e+01 -2.4732455105e+01 +1.6079869408e+01 6.3274278543e+01 0.0000000000e+00 0.0000e+00 1.0000e+00
       21  1    1    2  505  502 +1.1730560595e+02 -2.8214398325e+01 +3.8347803109e+02 4.0201002200e+02 0.0000000000e+00 0.0000e+00 -1.0000e+00
<mgrwt>
<rscale>  4 0.31856072E+03</rscale>
<asrwt>0</asrwt>
<pdfrwt beam="1">  1       21 0.10094181E+00 0.31856072E+03</pdfrwt>
<pdfrwt beam="2">  1       21 0.12060420E+00 0.31856072E+03</pdfrwt>
<totfact> 0.37419389E+02</totfact>
</mgrwt>
</event>
<event>
 6      1 +2.5168323e+02 2.58697200e+02 7.54677100e-03 1.11471900e-01
       21 -1    0    0  503  502 +0.0000000000e+00 +0.0000000000e+00 +3.7037085908e+02 3.7037085908e+02 0.0000000000e+00 0.0000e+00 1.0000e+00
       21 -1    0    0  501  503 -0.0000000000e+00 -0.0000000000e+00 -3.1121364489e+02 3.1121364489e+02 0.0000000000e+00 0.0000e+00 -1.0000e+00
        6  1    1    2  501    0 +6.9607352909e+01 +1.9542227031e+02 +1.2900521358e+01 2.7042646092e+02 1.7300000000e+02 0.0000e+00 1.0000e+00
       -6  1    1    2    0  504 -7.4244150076e+01 -1.6618026581e+02 -5.9788914275e+01 2.5813134028e+02 1.7300000000e+02 0.0000e+00 -1.0000e+00
       21  1    1    2  504  505 -8.2674714618e+00 -5.3115056816e+01 +1.1910913103e+01 5.5058425294e+01 0.0000000000e+00 0.0000e+00 -1.0000e+00
       21  1    1    2  505  502 +1.2904268629e+01 +2.3873052319e+01 +9.4134694006e+01 9.7968277475e+01 0.0000000000e+00 0.0000e+00 1.0000e+00
<mgrwt>
<rscale>  4 0.25869722E+03</rscale>
<asrwt>0</asrwt>
<pdfrwt beam="1">  1       21 0.56980132E-01 0.25869722E+03</pdfrwt>
<pdfrwt beam="2">  1       21 0.47879023E-01 0.25869722E+03</pdfrwt>
<totfact> 0.11601093E+04</totfact>
</mgrwt>
</event>
<event>
 6      1 +2.5168323e+02 2.29301500e+02 7.54677100e-03 9.87464100e-02
       21 -1    0    0  503  502 +0.0000000000e+00 +0.0000000000e+00 +3.4223142578e+02 3.4223142578e+02 0.0000000000e+00 0.0000e+00 -1.0000e+00
       21 -1    0    0  505  503 -0.0000000000e+00 -0.0000000000e+00 -3.3329385583e+02 3.3329385583e+02 0.0000000000e+00 0.0000e+00 -1.0000e+00
        6  1    1    2  501    0 -1.6039023398e+02 -1.0533731386e+00 +6.5218229434e+01 2.4476224014e+02 1.7300000000e+02 0.0000e+00 -1.0000e+00
       -6  1    1    2    0  504 +1.4212925508e+02 +1.8406871564e+01 +1.1134388587e+02 2.5073092947e+02 1.7300000000e+02 0.0000e+00 -1.0000e+00
       21  1    1    2  504  502 +1.9149599878e+01 +7.0782475050e+00 -1.4679708769e+01 2.5145628105e+01 0.0000000000e+00 0.0000e+00 -1.0000e+00
       21  1    1    2  505  501 -8.8862098725e-01 -2.4431745931e+01 -1.5294483658e+02 1.5488648390e+02 0.0000000000e+00 0.0000e+00 -1.0000e+00
<mgrwt>
<rscale>  4 0.22930149E+03</rscale>
<asrwt>0</asrwt>
<pdfrwt beam="1">  1       21 0.52650988E-01 0.22930149E+03</pdfrwt>
<pdfrwt beam="2">  1       21 0.51275978E-01 0.22930149E+03</pdfrwt>
<totfact> 0.12080441E+04</totfact>
</mgrwt>
</event>
<event>
 6      1 +2.5168323e+02 1.77376700e+02 7.54677100e-03 1.11471900e-01
       21 -1    0    0  503  502 +0.0000000000e+00 +0.0000000000e+00 +2.1606511471e+02 2.1606511471e+02 0.0000000000e+00 0.0000e+00 -1.0000e+00
       21 -1    0    0  501  503 -0.0000000000e+00 -0.0000000000e+00 -1.4884926457e+03 1.4884926457e+03 0.0000000000e+00 0.0000e+00 -1.0000e+00
        6  1    1    2  501    0 -1.2526231303e+02 -4.5335700319e+01 +3.9849531597e+00 2.1838235424e+02 1.7300000000e+02 0.0000e+00 -1.0000e+00
       -6  1    1    2    0  504 +1.3238664531e+00 -4.3244398062e+01 -1.1966100164e+03 1.2098249303e+03 1.7300000000e+02 0.0000e+00 -1.0000e+00
       21  1    1    2  504  505 +1.3897138241e+02 +3.4901255428e+01 -1.3574395042e+02 1.9737670286e+02 0.0000000000e+00 0.0000e+00 -1.0000e+00
       21  1    1    2  505  502 -1.5032935826e+01 +5.3678842954e+01 +5.5941482678e+01 7.8973773017e+01 0.0000000000e+00 0.0000e+00 -1.0000e+00
<mgrwt>
<rscale>  4 0.17737675E+03</rscale>
<asrwt>0</asrwt>
<pdfrwt beam="1">  1       21 0.33240787E-01 0.17737675E+03</pdfrwt>
<pdfrwt beam="2">  1       21 0.22899887E+00 0.17737675E+03</pdfrwt>
<totfact> 0.78795895E+02</totfact>
</mgrwt>
</event>
<event>
 6      1 +2.5168323e+02 3.05424000e+02 7.54677100e-03 1.07240600e-01
       21 -1    0    0  505  502 +0.0000000000e+00 +0.0000000000e+00 +7.7714369568e+02 7.7714369568e+02 0.0000000000e+00 0.0000e+00 1.0000e+00
       21 -1    0    0  504  503 -0.0000000000e+00 -0.0000000000e+00 -4.6756289831e+02 4.6756289831e+02 0.0000000000e+00 0.0000e+00 1.0000e+00
        6  1    1    2  501    0 -2.5093075439e+02 -5.7849838124e+01 +3.1450123258e+02 4.4176110350e+02 1.7300000000e+02 0.0000e+00 1.0000e+00
       -6  1    1    2    0  502 +2.3214045388e+02 +8.1277176241e+01 +2.4304902160e+02 3.8664841472e+02 1.7300000000e+02 0.0000e+00 1.0000e+00
       21  1    1    2  504  501 -4.0093500233e+01 -6.8152720892e+01 +6.0200555375e+01 9.9380023110e+01 0.0000000000e+00 0.0000e+00 1.0000e+00
       21  1    1    2  505  503 +5.8883800746e+01 +4.4725382775e+01 -3.0817001218e+02 3.1691705266e+02 0.0000000000e+00 0.0000e+00 1.0000e+00
<mgrwt>
<rscale>  4 0.30542401E+03</rscale>
<asrwt>0</asrwt>
<pdfrwt beam="1">  1       21 0.11956057E+00 0.30542401E+03</pdfrwt>
<pdfrwt beam="2">  1       21 0.71932754E-01 0.30542401E+03</pdfrwt>
<totfact> 0.84722161E+02</totfact>
</mgrwt>
</event>
<event>
 6      1 +2.5168323e+02 2.24066900e+02 7.54677100e-03 1.17132900e-01
       21 -1    0    0  505  502 +0.0000000000e+00 +0.0000000000e+00 +1.1154092099e+03 1.1154092099e+03 0.0000000000e+00 0.0000e+00 -1.0000e+00
       21 -1    0    0  504  503 -0.0000000000e+00 -0.0000000000e+00 -9.4377409741e+01 9.4377409741e+01 0.0000000000e+00 0.0000e+00 1.0000e+00
        6  1    1    2  501    0 +1.4458879522e+02 -2.3598213406e+01 +1.3211323872e+02 2.6238464746e+02 1.7300000000e+02 0.0000e+00 1.0000e+00
       -6  1    1    2    0  502 -1.2476127650e+02 +5.1074362499e+01 +4.6085022383e+02 5.1037818863e+02 1.7300000000e+02 0.0000e+00 -1.0000e+00
       21  1    1    2  504  501 -2.8547164447e+01 -1.7871542568e+00 +4.7198847531e+01 5.5189362440e+01 0.0000000000e+00 0.0000e+00 1.0000e+00
       21  1    1    2  505  503 +8.7196457345e+00 -2.5688994836e+01 +3.8086949010e+02 3.8183442114e+02 0.0000000000e+00 0.0000e+00 -1.0000e+00
<mgrwt>
<rscale>  4 0.22406687E+03</rscale>
<asrwt>0</asrwt>
<pdfrwt beam="1">  1       21 0.17160141E+00 0.22406687E+03</pdfrwt>
<pdfrwt beam="2">  1       21 0.14519602E-01 0.22406687E+03</pdfrwt>
<totfact> 0.84464284E+03</totfact>
</mgrwt>
</event>
<event>
 6      1 +2.5168323e+02 2.43913200e+02 7.54677100e-03 1.17392200e-01
       21 -1    0    0  504  502 +0.0000000000e+00 +0.0000000000e+00 +1.7237782514e+02 1.7237782514e+02 0.0000000000e+00 0.0000e+00 1.0000e+00
       21 -1    0    0  501  503 -0.0000000000e+00 -0.0000000000e+00 -5.8764244304e+02 5.8764244304e+02 0.0000000000e+00 0.0000e+00 1.0000e+00
        6  1    1    2  501    0 +6.9207075207e+01 -3.1398224985e+01 -1.9616560630e+02 2.7236999263e+02 1.7300000000e+02 0.0000e+00 1.0000e+00
       -6  1    1    2    0  502 -3.0077430593e+01 -1.5681227989e+02 -8.8436666154e+01 2.5148516233e+02 1.7300000000e+02 0.0000e+00 -1.0000e+00
       21  1    1    2  504  505 -2.6629253717e+01 +1.6520447813e+02 -1.2623347297e+02 2.0961041588e+02 0.0000000000e+00 0.0000e+00 1.0000e+00
       21  1    1    2  505  503 -1.2500390897e+01 +2.3006026742e+01 -4.4288724891e+00 2.6554697335e+01 0.0000000000e+00 0.0000e+00 1.0000e+00
<mgrwt>
<rscale>  4 0.22883199E+03</rscale>
<asrwt>0</asrwt>
<pdfrwt beam="1">  1       21 0.26519665E-01 0.24391316E+03</pdfrwt>
<pdfrwt beam="2">  1       21 0.90406530E-01 0.24391316E+03</pdfrwt>
<totfact> 0.13634019E+04</totfact>
</mgrwt>
</event>
<event>
 6      1 +2.5168323e+02 1.84615900e+02 7.54677100e-03 1.16820100e-01
       21 -1    0    0  504  502 +0.0000000000e+00 +0.0000000000e+00 +3.0748786727e+02 3.0748786727e+02 0.0000000000e+00 0.0000e+00 1.0000e+00
       21 -1    0    0  501  503 -0.0000000000e+00 -0.0000000000e+00 -4.3313193399e+02 4.3313193399e+02 0.0000000000e+00 0.0000e+00 1.0000e+00
        6  1    1    2  501    0 +3.6163452160e+01 +2.0202472153e+01 -1.7308983264e+02 2.4820359650e+02 1.7300000000e+02 0.0000e+00 -1.0000e+00
       -6  1    1    2    0  505 -6.1254584295e+01 -1.8887031150e+01 +7.8110232282e+01 2.0034732948e+02 1.7300000000e+02 0.0000e+00 -1.0000e+00
       21  1    1    2  504  503 +2.8029075517e+01 +1.8609511088e+01 -1.5881791925e+02 1.6234246041e+02 0.0000000000e+00 0.0000e+00 1.0000e+00
       21  1    1    2  505  502 -2.9379433825e+00 -1.9924952091e+01 +1.2815345289e+02 1.2972641487e+02 0.0000000000e+00 0.0000e+00 -1.0000e+00
<mgrwt>
<rscale>  4 0.18461586E+03</rscale>
<asrwt>0</asrwt>
<pdfrwt beam="1">  1       21 0.47305826E-01 0.18461586E+03</pdfrwt>
<pdfrwt beam="2">  1       21 0.66635681E-01 0.18461586E+03</pdfrwt>
<totfact> 0.88757567E+03</totfact>
</mgrwt>
</event>
<event>
 6      1 +2.5168323e+02 2.02136800e+02 7.54677100e-03 1.09842800e-01
       21 -1    0    0  503  502 +0.0000000000e+00 +0.0000000000e+00 +2.1993594099e+02 2.1993594099e+02 0.0000000000e+00 0.0000e+00 1.0000e+00
       21 -1    0    0  501  503 -0.0000000000e+00 -0.0000000000e+00 -6.4619450583e+02 6.4619450583e+02 0.0000000000e+00 0.0000e+00 -1.0000e+00
        6  1    1    2  501    0 -9.2276448441e+01 -9.6589234753e+01 -4.9800611516e+02 5.4385982932e+02 1.7300000000e+02 0.0000e+00 -1.0000e+00
       -6  1    1    2    0  504 +5.9240732406e+01 +9.5628702928e+01 +1.1449238972e+02 2.3599114497e+02 1.7300000000e+02 0.0000e+00 1.0000e+00
       21  1    1    2  504  505 +2.7483732964e+01 +2.1438517446e+01 -5.2427539791e+01 6.2957227833e+01 0.0000000000e+00 0.0000e+00 -1.0000e+00
       21  1    1    2  505  502 +5.5519830715e+00 -2.0477985621e+01 +9.6827003890e+00 2.3322244702e+01 0.0000000000e+00 0.0000e+00 1.0000e+00
<mgrwt>
<rscale>  4 0.20213684E+03</rscale>
<asrwt>0</asrwt>
<pdfrwt beam="1">  1       21 0.33836299E-01 0.20213684E+03</pdfrwt>
<pdfrwt beam="2">  1       21 0.99414537E-01 0.20213684E+03</pdfrwt>
<totfact> 0.69550999E+03</totfact>
</mgrwt>
</event>
<event>
 6      1 +2.5168323e+02 1.82844900e+02 7.54677100e-03 1.15942100e-01
       21 -1    0    0  504  502 +0.0000000000e+00 +0.0000000000e+00 +3.7424552875e+02 3.7424552875e+02 0.0000000000e+00 0.0000e+00 1.0000e+00
       21 -1    0    0  501  503 -0.0000000000e+00 -0.0000000000e+00 -7.7689160954e+02 7.7689160954e+02 0.0000000000e+00 0.0000e+00 1.0000e+00
        6  1    1    2  501    0 -6.1870875842e+00 -1.5804372042e+01 -6.3919864234e+02 6.6241373974e+02 1.7300000000e+02 0.0000e+00 1.0000e+00
       -6  1    1    2    0  502 -3.4027745238e+01 -5.1870801299e+01 +3.2091067388e+02 3.6981228763e+02 1.7300000000e+02 0.0000e+00 1.0000e+00
       21  1    1    2  504  505 +3.5523942554e+01 +3.2133413143e+01 -5.0384948968e+01 6.9520858865e+01 0.0000000000e+00 0.0000e+00 1.0000e+00
       21  1    1    2  505  503 +4.6908902680e+00 +3.5541760198e+01 -3.3973163357e+01 4.9390252053e+01 0.0000000000e+00 0.0000e+00 1.0000e+00
<mgrwt>
<rscale>  4 0.18284495E+03</rscale>
<asrwt>0</asrwt>
<pdfrwt beam="1">  1       21 0.57576235E-01 0.18284495E+03</pdfrwt>
<pdfrwt beam="2">  1       21 0.11952179E+00 0.18284495E+03</pdfrwt>
<totfact> 0.15241170E+03</totfact>
</mgrwt>
</event>
<event>
 6      1 +2.5168323e+02 2.54693400e+02 7.54677100e-03 1.17392200e-01
       21 -1    0    0  504  502 +0.0000000000e+00 +0.0000000000e+00 +2.4701905815e+02 2.4701905815e+02 0.0000000000e+00 0.0000e+00 1.0000e+00
       21 -1    0    0  501  503 -0.0000000000e+00 -0.0000000000e+00 -6.6749497687e+02 6.6749497687e+02 0.0000000000e+00 0.0000e+00 1.0000e+00
        6  1    1    2  501    0 +1.3224961406e+02 +3.5947640507e+01 -3.9658227223e+02 4.5385977121e+02 1.7300000000e+02 0.0000e+00 1.0000e+00
       -6  1    1    2    0  502 -1.9714196532e+02 -6.2147829445e+00 +1.2600000545e+02 2.9104738341e+02 1.7300000000e+02 0.0000e+00 1.0000e+00
       21  1    1    2  504  505 +4.0771412160e+01 -1.9437942243e+01 -1.2700428335e+02 1.3479699418e+02 0.0000000000e+00 0.0000e+00 1.0000e+00
       21  1    1    2  505  503 +2.4120939102e+01 -1.0294915319e+01 -2.2889368581e+01 3.4809886220e+01 0.0000000000e+00 0.0000e+00 1.0000e+00
<mgrwt>
<rscale>  4 0.25469343E+03</rscale>
<asrwt>0</asrwt>
<pdfrwt beam="1">  1       21 0.38002932E-01 0.25469343E+03</pdfrwt>
<pdfrwt beam="2">  1       21 0.10269154E+00 0.25469343E+03</pdfrwt>
<totfact> 0.49241435E+03</totfact>
</mgrwt>
</event>
<event>
 6      1 +2.5168323e+02 1.95510500e+02 7.54677100e-03 1.17132900e-01
       21 -1    0    0  505  502 +0.0000000000e+00 +0.0000000000e+00 +6.8089297912e+01 6.8089297912e+01 0.0000000000e+00 0.0000e+00 1.0000e+00
       21 -1    0    0  504  503 -0.0000000000e+00 -0.0000000000e+00 -1.6149338220e+03 1.6149338220e+03 0.0000000000e+00 0.0000e+00 -1.0000e+00
        6  1    1    2  501    0 +8.4552003676e+00 +1.0934342745e+02 -3.2071691760e+02 3.8054673402e+02 1.7300000000e+02 0.0000e+00 1.0000e+00
       -6  1    1    2    0  502 +6.6957606797e+01 -7.2790956811e+01 -7.3160975128e+02 7.5826359049e+02 1.7300000000e+02 0.0000e+00 -1.0000e+00
       21  1    1    2  504  501 -5.4781006374e+01 -1.0114840169e+01 -5.0577872188e+02 5.0883728653e+02 0.0000000000e+00 0.0000e+00 -1.0000e+00
       21  1    1    2  505  503 -2.0631800791e+01 -2.6437630468e+01 +1.1260866683e+01 3.5375508860e+01 0.0000000000e+00 0.0000e+00 1.0000e+00
<mgrwt>
<rscale>  4 0.19551046E+03</rscale>
<asrwt>0</asrwt>
<pdfrwt beam="1">  1       21 0.10475276E-01 0.19551046E+03</pdfrwt>
<pdfrwt beam="2">  1       21 0.24845137E+00 0.19551046E+03</pdfrwt>
<totfact> 0.50605926E+03</totfact>
</mgrwt>
</event>
<event>
 6      1 +2.5168323e+02 2.97716100e+02 7.54677100e-03 1.11910500e-01
       21 -1    0    0  501  502 +0.0000000000e+00 +0.0000000000e+00 +5.8766223207e+02 5.8766223207e+02 0.0000000000e+00 0.0000e+00 1.0000e+00
       21 -1    0    0  505  503 -0.0000000000e+00 -0.0000000000e+00 -2.4747710601e+02 2.4747710601e+02 0.0000000000e+00 0.0000e+00 -1.0000e+00
        6  1    1    2  501    0 -2.2878856446e+02 -6.7588526980e+01 +1.8403691767e+02 3.4743489070e+02 1.7300000000e+02 0.0000e+00 1.0000e+00
       -6  1    1    2    0  504 +2.2580353990e+02 +9.9051774864e+01 +2.3383831525e+02 3.8132381307e+02 1.7300000000e+02 0.0000e+00 1.0000e+00
       21  1    1    2  504  503 +2.0608866061e+00 +2.0004742142e+01 -3.0586308553e+01 3.6605453592e+01 0.0000000000e+00 0.0000e+00 1.0000e+00
       21  1    1    2  505  502 +9.2413795760e-01 -5.1467990025e+01 -4.7103798311e+01 6.9775180713e+01 0.0000000000e+00 0.0000e+00 -1.0000e+00
<mgrwt>
<rscale>  4 0.29771606E+03</rscale>
<asrwt>0</asrwt>
<pdfrwt beam="1">  1       21 0.90409573E-01 0.29771606E+03</pdfrwt>
<pdfrwt beam="2">  1       21 0.38073401E-01 0.29771606E+03</pdfrwt>
<totfact> 0.64828773E+03</totfact>
</mgrwt>
</event>
<event>
 6      1 +2.5168323e+02 2.34469000e+02 7.54677100e-03 1.04003000e-01
       21 -1    0    0  504  502 +0.0000000000e+00 +0.0000000000e+00 +1.0842495718e+02 1.0842495718e+02 0.0000000000e+00 0.0000e+00 -1.0000e+00
       21 -1    0    0  505  503 -0.0000000000e+00 -0.0000000000e+00 -1.7794412394e+03 1.7794412394e+03 0.0000000000e+00 0.0000e+00 -1.0000e+00
        6  1    1    2  501    0 -4.8425567099e+01 -4.9256349681e+01 -1.0252416950e+02 2.1262979298e+02 1.7300000000e+02 0.0000e+00 -1.0000e+00
       -6  1    1    2    0  503 +4.2819930259e+01 -1.4100508912e+02 -1.2847270762e+03 1.3046718522e+03 1.7300000000e+02 0.0000e+00 -1.0000e+00
       21  1    1    2  504  501 +3.0750827533e+01 -1.1423936935e+01 -5.9194187986e+01 6.7676226405e+01 0.0000000000e+00 0.0000e+00 1.0000e+00
       21  1    1    2  505  502 -2.5145190693e+01 +2.0168537573e+02 -2.2457084852e+02 3.0288832497e+02 0.0000000000e+00 0.0000e+00 -1.0000e+00
<mgrwt>
<rscale>  4 0.22081749E+03</rscale>
<asrwt>0</asrwt>
<pdfrwt beam="1">  1       21 0.16680762E-01 0.23446901E+03</pdfrwt>
<pdfrwt beam="2">  1       21 0.27376020E+00 0.23446901E+03</pdfrwt>
<totfact> 0.14891060E+03</totfact>
</mgrwt>
</event>
<event>
 6      1 +2.5168323e+02 1.79087500e+02 7.54677100e-03 1.11910500e-01
       21 -1    0    0  501  502 +0.0000000000e+00 +0.0000000000e+00 +1.4984133346e+03 1.4984133346e+03 0.0000000000e+00 0.0000e+00 -1.0000e+00
       21 -1    0    0  504  503 -0.0000000000e+00 -0.0000000000e+00 -1.6307296597e+02 1.6307296597e+02 0.0000000000e+00 0.0000e+00 -1.0000e+00
        6  1    1    2  501    0 +5.6901095353e+00 +3.7535510654e+01 +4.5672513298e+02 4.8986542948e+02 1.7300000000e+02 0.0000e+00 -1.0000e+00
       -6  1    1    2    0  503 -2.6372162945e+00 -5.0320632511e+01 +1.0050577790e+03 1.0210823964e+03 1.7300000000e+02 0.0000e+00 -1.0000e+00
       21  1    1    2  504  505 -2.1874973210e+01 -1.9555831475e+01 -1.4943679651e+01 3.2928081620e+01 0.0000000000e+00 0.0000e+00 1.0000e+00
       21  1    1    2  505  502 +1.8822079970e+01 +3.2340953331e+01 -1.1149886372e+02 1.1761039311e+02 0.0000000000e+00 0.0000e+00 -1.0000e+00
<mgrwt>
<rscale>  4 0.17908752E+03</rscale>
<asrwt>0</asrwt>
<pdfrwt beam="1">  1       21 0.23052512E+00 0.17908752E+03</pdfrwt>
<pdfrwt beam="2">  1       21 0.25088150E-01 0.17908752E+03</pdfrwt>
<totfact> 0.13275897E+03</totfact>
</mgrwt>
</event>
<event>
 6      1 +2.5168323e+02 1.94918000e+02 7.54677100e-03 1.03924000e-01
       21 -1    0    0  504  502 +0.0000000000e+00 +0.0000000000e+00 +1.5881236530e+03 1.5881236530e+03 0.0000000000e+00 0.0000e+00 -1.0000e+00
       21 -1    0    0  501  503 -0.0000000000e+00 -0.0000000000e+00 -1.0379259443e+03 1.0379259443e+03 0.0000000000e+00 0.0000e+00 1.0000e+00
        6  1    1    2  501    0 +1.1485804146e+02 -1.3161394425e+01 -8.5147316410e+02 8.7652788955e+02 1.7300000000e+02 0.0000e+00 1.0000e+00
       -6  1    1    2    0  505 -3.4629333861e-01 -1.7510842496e+01 -1.2678965212e+02 2.1520075606e+02 1.7300000000e+02 0.0000e+00 -1.0000e+00
       21  1    1    2  504  503 -9.1179288882e+01 -1.2726345052e+00 +1.2061028041e+03 1.2095450617e+03 0.0000000000e+00 0.0000e+00 -1.0000e+00
       21  1    1    2  505  502 -2.3332459238e+01 +3.1944871426e+01 +3.2235772092e+02 3.2477588997e+02 0.0000000000e+00 0.0000e+00 -1.0000e+00
<mgrwt>
<rscale>  4 0.19491799E+03</rscale>
<asrwt>0</asrwt>
<pdfrwt beam="1">  1       21 0.24432672E+00 0.19491799E+03</pdfrwt>
<pdfrwt beam="2">  1       21 0.15968091E+00 0.19491799E+03</pdfrwt>
<totfact> 0.18099576E+01</totfact>
</mgrwt>
</event>
<event>
 6      1 +2.5168323e+02 1.88730000e+02 7.54677100e-03 1.17132900e-01
       21 -1    0    0  503  502 +0.0000000000e+00 +0.0000000000e+00 +3.3049113714e+02 3.3049113714e+02 0.0000000000e+00 0.0000e+00 1.0000e+00
       21 -1    0    0  504  503 -0.0000000000e+00 -0.0000000000e+00 -2.6165830115e+02 2.6165830115e+02 0.0000000000e+00 0.0000e+00 1.0000e+00
        6  1    1    2  501    0 +5.5198506449e+01 +1.9744363727e+01 +1.5518610034e+01 1.8332087244e+02 1.7300000000e+02 0.0000e+00 -1.0000e+00
       -6  1    1    2    0  505 -4.6388364456e+01 -9.3033323169e+01 -2.8442968643e+01 2.0382610736e+02 1.7300000000e+02 0.0000e+00 -1.0000e+00
       21  1    1    2  504  501 +1.5747843562e+01 +1.8065993208e+01 -5.2531578824e+01 5.7740293220e+01 0.0000000000e+00 0.0000e+00 -1.0000e+00
       21  1    1    2  505  502 -2.4557985556e+01 +5.5222966234e+01 +1.3428877343e+02 1.4726216528e+02 0.0000000000e+00 0.0000e+00 1.0000e+00
<mgrwt>
<rscale>  4 0.18873003E+03</rscale>
<asrwt>0</asrwt>
<pdfrwt beam="1">  1       21 0.50844790E-01 0.18873003E+03</pdfrwt>
<pdfrwt beam="2">  1       21 0.40255123E-01 0.18873003E+03</pdfrwt>
<totfact> 0.21930155E+04</totfact>
</mgrwt>
</event>
<event>
 6      1 +2.5168323e+02 2.00947000e+02 7.54677100e-03 1.12068800e-01
       21 -1    0    0  504  502 +0.0000000000e+00 +0.0000000000e+00 +6.8796995068e+02 6.8796995068e+02 0.0000000000e+00 0.0000e+00 -1.0000e+00
       21 -1    0    0  502  503 -0.0000000000e+00 -0.0000000000e+00 -8.0573953854e+02 8.0573953854e+02 0.0000000000e+00 0.0000e+00 1.0000e+00
        6  1    1    2  501    0 -2.8418371017e+00 +3.7064906559e+01 +1.0206453274e+02 2.0427445307e+02 1.7300000000e+02 0.0000e+00 -1.0000e+00
       -6  1    1    2    0  505 -7.4484094724e+01 -1.1169971729e+02 +5.0597869602e+02 5.5133306453e+02 1.7300000000e+02 0.0000e+00 -1.0000e+00
       21  1    1    2  504  501 +3.1444093892e+01 +4.4095360659e+01 -5.7479308877e+02 5.7733891846e+02 0.0000000000e+00 0.0000e+00 1.0000e+00
       21  1    1    2  505  503 +4.5881837933e+01 +3.0539450072e+01 -1.5101972785e+02 1.6076305316e+02 0.0000000000e+00 0.0000e+00 1.0000e+00
<mgrwt>
<rscale>  4 0.20094702E+03</rscale>
<asrwt>0</asrwt>
<pdfrwt beam="1">  1       21 0.10584153E+00 0.20094702E+03</pdfrwt>
<pdfrwt beam="2">  1       21 0.12395993E+00 0.20094702E+03</pdfrwt>
<totfact> 0.34576184E+02</totfact>
</mgrwt>
</event>
<event>
 6      1 +2.5168323e+02 4.58034100e+02 7.54677100e-03 1.12068800e-01
       21 -1    0    0  504  502 +0.0000000000e+00 +0.0000000000e+00 +1.1495842706e+03 1.1495842706e+03 0.0000000000e+00 0.0000e+00 1.0000e+00
       21 -1    0    0  502  503 -0.0000000000e+00 -0.0000000000e+00 -7.1229904466e+02 7.1229904466e+02 0.0000000000e+00 0.0000e+00 -1.0000e+00
        6  1    1    2  501    0 -2.5706504168e+02 -2.9582925577e+02 +5.3838719876e+02 6.8803136558e+02 1.7300000000e+02 0.0000e+00 -1.0000e+00
       -6  1    1    2    0  505 +2.9885678532e+02 +2.7792518346e+02 +1.5438400876e+02 4.6938385986e+02 1.7300000000e+02 0.0000e+00 1.0000e+00
       21  1    1    2  504  501 -9.3713058404e+01 -7.3666082155e+01 +2.0226117572e+02 2.3477310787e+02 0.0000000000e+00 0.0000e+00 -1.0000e+00
       21  1    1    2  505  503 +5.1921314763e+01 +9.1570154459e+01 -4.5774715726e+02 4.6969498198e+02 0.0000000000e+00 0.0000e+00 -1.0000e+00
<mgrwt>
<rscale>  4 0.45803407E+03</rscale>
<asrwt>0</asrwt>
<pdfrwt beam="1">  1       21 0.17685912E+00 0.45803407E+03</pdfrwt>
<pdfrwt beam="2">  1       21 0.10958447E+00 0.45803407E+03</pdfrwt>
<totfact> 0.10032518E+02</totfact>
</mgrwt>
</event>
<event>
 6      1 +2.5168323e+02 1.90573900e+02 7.54677100e-03 1.07064900e-01
       21 -1    0    0  501  502 +0.0000000000e+00 +0.0000000000e+00 +1.6280707419e+03 1.6280707419e+03 0.0000000000e+00 0.0000e+00 1.0000e+00
       21 -1    0    0  504  503 -0.0000000000e+00 -0.0000000000e+00 -1.9006704865e+02 1.9006704865e+02 0.0000000000e+00 0.0000e+00 1.0000e+00
        6  1    1    2  501    0 +6.0233900886e+01 -1.3621268723e+02 +8.8862547784e+01 2.4496442880e+02 1.7300000000e+02 0.0000e+00 -1.0000e+00
       -6  1    1    2    0  503 +7.9064233235e+01 +4.0573936504e+01 -1.7209633406e+01 1.9525001609e+02 1.7300000000e+02 0.0000e+00 1.0000e+00
       21  1    1    2  504  505 -1.3567822560e+02 +7.1970737523e+01 +1.2195349374e+03 1.2291679428e+03 0.0000000000e+00 0.0000e+00 1.0000e+00
       21  1    1    2  505  502 -3.6199085213e+00 +2.3668013202e+01 +1.4681584146e+02 1.4875540290e+02 0.0000000000e+00 0.0000e+00 1.0000e+00
<mgrwt>
<rscale>  4 0.19057392E+03</rscale>
<asrwt>0</asrwt>
<pdfrwt beam="1">  1       21 0.25047241E+00 0.19057392E+03</pdfrwt>
<pdfrwt beam="2">  1       21 0.29241086E-01 0.19057392E+03</pdfrwt>
<totfact> 0.74203992E+02</totfact>
</mgrwt>
</event>
<event>
 6      1 +2.5168323e+02 2.17297200e+02 7.54677100e-03 1.16820100e-01
       21 -1    0    0  505  502 +0.0000000000e+00 +0.0000000000e+00 +2.9930040784e+02 2.9930040784e+02 0.0000000000e+00 0.0000e+00 1.0000e+00
       21 -1    0    0  501  503 -0.0000000000e+00 -0.0000000000e+00 -3.9280405007e+02 3.9280405007e+02 0.0000000000e+00 0.0000e+00 -1.0000e+00
        6  1    1    2  501    0 -3.4671432987e+01 -9.0819456249e+01 +6.1857247852e+01 2.0785957041e+02 1.7300000000e+02 0.0000e+00 1.0000e+00
       -6  1    1    2    0  502 +2.4205790015e+01 +1.4504567161e+02 -5.6532607502e+01 2.3398526200e+02 1.7300000000e+02 0.0000e+00 -1.0000e+00
       21  1    1    2  504  503 +5.6312801939e+01 +2.1715589144e+01 -1.4000536243e+02 1.5246048663e+02 0.0000000000e+00 0.0000e+00 -1.0000e+00
       21  1    1    2  505  504 -4.5847158967e+01 -7.5941804505e+01 +4.1177079862e+01 9.7799138865e+01 0.0000000000e+00 0.0000e+00 1.0000e+00
<mgrwt>
<rscale>  4 0.21729718E+03</rscale>
<asrwt>0</asrwt>
<pdfrwt beam="1">  1       21 0.46046217E-01 0.21729718E+03</pdfrwt>
<pdfrwt beam="2">  1       21 0.60431392E-01 0.21729718E+03</pdfrwt>
<totfact> 0.11348261E+04</totfact>
</mgrwt>
</event>
<event>
 6      1 +2.5168323e+02 2.53650300e+02 7.54677100e-03 1.04003000e-01
       21 -1    0    0  504  502 +0.0000000000e+00 +0.0000000000e+00 +4.7923236316e+02 4.7923236316e+02 0.0000000000e+00 0.0000e+00 1.0000e+00
       21 -1    0    0  505  503 -0.0000000000e+00 -0.0000000000e+00 -2.6275966745e+02 2.6275966745e+02 0.0000000000e+00 0.0000e+00 1.0000e+00
        6  1    1    2  501    0 +1.1161502256e+02 -1.3689091275e+02 +1.8019199910e+02 3.0593331266e+02 1.7300000000e+02 0.0000e+00 1.0000e+00
       -6  1    1    2    0  503 -1.1622905960e+02 +1.6005155269e+02 +1.1475545383e+02 2.8674641758e+02 1.7300000000e+02 0.0000e+00 1.0000e+00
       21  1    1    2  504  501 +1.7385951819e+01 +2.1105139704e+01 -9.6153054731e+01 9.9965534945e+01 0.0000000000e+00 0.0000e+00 1.0000e+00
       21  1    1    2  505  502 -1.2771914786e+01 -4.4265779648e+01 +1.7678297509e+01 4.9346765426e+01 0.0000000000e+00 0.0000e+00 1.0000e+00
<mgrwt>
<rscale>  4 0.25365032E+03</rscale>
<asrwt>0</asrwt>
<pdfrwt beam="1">  1       21 0.73728055E-01 0.25365032E+03</pdfrwt>
<pdfrwt beam="2">  1       21 0.40424564E-01 0.25365032E+03</pdfrwt>
<totfact> 0.93732239E+03</totfact>
</mgrwt>
</event>
<event>
 6      1 +2.5168323e+02 2.27522000e+02 7.54677100e-03 1.16820100e-01
       21 -1    0    0  501  502 +0.0000000000e+00 +0.0000000000e+00 +5.9608375540e+01 5.9608375540e+01 0.0000000000e+00 0.0000e+00 1.0000e+00
       21 -1    0    0  504  503 -0.0000000000e+00 -0.0000000000e+00 -2.2656411789e+03 2.2656411789e+03 0.0000000000e+00 0.0000e+00 1.0000e+00
        6  1    1    2  501    0 -4.8563961850e+01 -1.6301170768e+02 -6.3063459535e+02 6.7569243601e+02 1.7300000000e+02 0.0000e+00 1.0000e+00
       -6  1    1    2    0  503 -1.0192866631e+02 +1.2785339886e+02 -4.4632061390e+02 5.0583301099e+02 1.7300000000e+02 0.0000e+00 1.0000e+00
       21  1    1    2  504  505 +1.0562572261e+02 -1.2103553068e+01 -8.7446287462e+02 8.8090215595e+02 0.0000000000e+00 0.0000e+00 1.0000e+00
       21  1    1    2  505  502 +4.4866905543e+01 +4.7261861882e+01 -2.5461471954e+02 2.6282195153e+02 0.0000000000e+00 0.0000e+00 1.0000e+00
<mgrwt>
<rscale>  4 0.22752205E+03</rscale>
<asrwt>0</asrwt>
<pdfrwt beam="1">  1       21 0.91705195E-02 0.22752205E+03</pdfrwt>
<pdfrwt beam="2">  1       21 0.34856017E+00 0.22752205E+03</pdfrwt>
<totfact> 0.16106917E+03</totfact>
</mgrwt>
</event>
<event>
 6      1 +2.5168323e+02 1.86069200e+02 7.54677100e-03 1.15942100e-01
       21 -1    0    0  504  502 +0.0000000000e+00 +0.0000000000e+00 +2.3247916572e+01 2.3247916572e+01 0.0000000000e+00 0.0000e+00 1.0000e+00
       21 -1    0    0  501  503 -0.0000000000e+00 -0.0000000000e+00 -2.1247684110e+03 2.1247684110e+03 0.0000000000e+00 0.0000e+00 -1.0000e+00
        6  1    1    2  501    0 -4.2711897328e+01 -4.9606715084e+01 -7.9112762341e+02 8.1246356772e+02 1.7300000000e+02 0.0000e+00 -1.0000e+00
       -6  1    1    2    0  502 +5.3359002254e+01 +4.7959795794e+01 -7.7019135605e+02 7.9263550897e+02 1.7300000000e+02 0.0000e+00 1.0000e+00
       21  1    1    2  504  505 +1.1403562491e+01 +2.0977052878e+01 -2.9600554274e+02 2.9696693304e+02 0.0000000000e+00 0.0000e+00 -1.0000e+00
       21  1    1    2  505  503 -2.2050667418e+01 -1.9330133587e+01 -2.4419597224e+02 2.4595031786e+02 0.0000000000e+00 0.0000e+00 -1.0000e+00
<mgrwt>
<rscale>  4 0.18606925E+03</rscale>
<asrwt>0</asrwt>
<pdfrwt beam="1">  1       21 0.35766015E-02 0.18606925E+03</pdfrwt>
<pdfrwt beam="2">  1       21 0.32688754E+00 0.18606925E+03</pdfrwt>
<totfact> 0.11365482E+04</totfact>
</mgrwt>
</event>
<event>
 6      1 +2.5168323e+02 2.25272500e+02 7.54677100e-03 1.17132900e-01
       21 -1    0    0  503  502 +0.0000000000e+00 +0.0000000000e+00 +3.2538162956e+02 3.2538162956e+02 0.0000000000e+00 0.0000e+00 1.0000e+00
       21 -1    0    0  504  503 -0.0000000000e+00 -0.0000000000e+00 -6.6131880953e+02 6.6131880953e+02 0.0000000000e+00 0.0000e+00 -1.0000e+00
        6  1    1    2  501    0 +1.2674768316e+02 +2.6384474579e+01 +8.2883645363e+01 2.3142993401e+02 1.7300000000e+02 0.0000e+00 1.0000e+00
       -6  1    1    2    0  505 -1.5915165151e+02 +9.8351210506e+00 -4.4585991342e+01 2.3946375176e+02 1.7300000000e+02 0.0000e+00 -1.0000e+00
       21  1    1    2  504  501 +1.2100992025e+01 -3.3728709675e+01 -4.4280400291e+02 4.4425155583e+02 0.0000000000e+00 0.0000e+00 -1.0000e+00
       21  1    1    2  505  502 +2.0302976324e+01 -2.4908859539e+00 +6.8569168919e+01 7.1555197482e+01 0.0000000000e+00 0.0000e+00 1.0000e+00
<mgrwt>
<rscale>  4 0.22527252E+03</rscale>
<asrwt>0</asrwt>
<pdfrwt beam="1">  1       21 0.50058712E-01 0.22527252E+03</pdfrwt>
<pdfrwt beam="2">  1       21 0.10174136E+00 0.22527252E+03</pdfrwt>
<totfact> 0.29157614E+03</totfact>
</mgrwt>
</event>
<event>
 6      1 +2.5168323e+02 1.91595700e+02 7.54677100e-03 1.04003000e-01
       21 -1    0    0  504  502 +0.0000000000e+00 +0.0000000000e+00 +2.0863611407e+03 2.0863611407e+03 0.0000000000e+00 0.0000e+00 1.0000e+00
       21 -1    0    0  502  503 -0.0000000000e+00 -0.0000000000e+00 -3.3930984019e+01 3.3930984019e+01 0.0000000000e+00 0.0000e+00 -1.0000e+00
        6  1    1    2  501    0 +6.9439428472e+01 +1.6493844680e+01 +4.5338663873e+02 4.9049192177e+02 1.7300000000e+02 0.0000e+00 -1.0000e+00
       -6  1    1    2    0  505 -8.5523323774e+01 -9.7110646987e+00 +1.5269938412e+03 1.5391711194e+03 1.7300000000e+02 0.0000e+00 1.0000e+00
       21  1    1    2  504  501 +3.7201784903e+00 -2.9068332446e+01 +3.4802292270e+01 4.5497332081e+01 0.0000000000e+00 0.0000e+00 -1.0000e+00
       21  1    1    2  505  503 +1.2363716811e+01 +2.2285552465e+01 +3.7247384504e+01 4.5131751511e+01 0.0000000000e+00 0.0000e+00 -1.0000e+00
<mgrwt>
<rscale>  4 0.19159574E+03</rscale>
<asrwt>0</asrwt>
<pdfrwt beam="1">  1       21 0.32097854E+00 0.19159574E+03</pdfrwt>
<pdfrwt beam="2">  1       21 0.52201530E-02 0.19159574E+03</pdfrwt>
<totfact> 0.64668713E+03</totfact>
</mgrwt>
</event>
<event>
 6      1 +2.5168323e+02 1.91381100e+02 7.54677100e-03 1.07064900e-01
       21 -1    0    0  501  502 +0.0000000000e+00 +0.0000000000e+00 +6.8537616561e+02 6.8537616561e+02 0.0000000000e+00 0.0000e+00 1.0000e+00
       21 -1    0    0  504  503 -0.0000000000e+00 -0.0000000000e+00 -2.2686297559e+02 2.2686297559e+02 0.0000000000e+00 0.0000e+00 1.0000e+00
        6  1    1    2  501    0 +1.3086068729e+02 -1.5547893079e+01 +4.0844126335e+02 4.6273050695e+02 1.7300000000e+02 0.0000e+00 1.0000e+00
       -6  1    1    2    0  503 -7.1098950147e+01 +2.9514557411e+01 -1.4746468876e+02 2.4000209216e+02 1.7300000000e+02 0.0000e+00 1.0000e+00
       21  1    1    2  504  505 -1.6255532117e+01 -1.3901249121e+01 +3.3080096797e+01 3.9392637074e+01 0.0000000000e+00 0.0000e+00 1.0000e+00
       21  1    1    2  505  502 -4.3506205024e+01 -6.5415210952e-02 +1.6445651864e+02 1.7011390501e+02 0.0000000000e+00 0.0000e+00 1.0000e+00
<mgrwt>
<rscale>  4 0.19138111E+03</rscale>
<asrwt>0</asrwt>
<pdfrwt beam="1">  1       21 0.10544249E+00 0.19138111E+03</pdfrwt>
<pdfrwt beam="2">  1       21 0.34901996E-01 0.19138111E+03</pdfrwt>
<totfact> 0.57293631E+03</totfact>
</mgrwt>
</event>
<event>
 6      1 +2.5168323e+02 2.14870000e+02 7.54677100e-03 1.15942100e-01
       21 -1    0    0  504  502 +0.0000000000e+00 +0.0000000000e+00 +6.9618732818e+02 6.9618732818e+02 0.0000000000e+00 0.0000e+00 1.0000e+00
       21 -1    0    0  501  503 -0.0000000000e+00 -0.0000000000e+00 -9.9365950900e+01 9.9365950900e+01 0.0000000000e+00 0.0000e+00 -1.0000e+00
        6  1    1    2  501    0 +1.1953860827e+02 -8.3423926557e+01 +4.2207443259e+02 4.7887874983e+02 1.7300000000e+02 0.0000e+00 -1.0000e+00
       -6  1    1    2    0  502 -5.8205126215e+01 +7.6804242678e+01 +1.2963392742e+02 2.3668688927e+02 1.7300000000e+02 0.0000e+00 1.0000e+00
       21  1    1    2  504  505 -4.2349188941e+01 -5.4457445552e+00 +3.5490484886e+01 5.5521927697e+01 0.0000000000e+00 0.0000e+00 -1.0000e+00
       21  1    1    2  505  503 -1.8984293116e+01 +1.2065428434e+01 +9.6225323783e+00 2.4465712289e+01 0.0000000000e+00 0.0000e+00 -1.0000e+00
<mgrwt>
<rscale>  4 0.21487004E+03</rscale>
<asrwt>0</asrwt>
<pdfrwt beam="1">  1       21 0.10710574E+00 0.21487004E+03</pdfrwt>
<pdfrwt beam="2">  1       21 0.15287070E-01 0.21487004E+03</pdfrwt>
<totfact> 0.26056136E+04</totfact>
</mgrwt>
</event>
<event>
 6      1 +2.5168323e+02 2.03401300e+02 7.54677100e-03 1.11910500e-01
       21 -1    0    0  501  502 +0.0000000000e+00 +0.0000000000e+00 +3.3007695060e+02 3.3007695060e+02 0.0000000000e+00 0.0000e+00 1.0000e+00
       21 -1    0    0  504  503 -0.0000000000e+00 -0.0000000000e+00 -3.2425106298e+02 3.2425106298e+02 0.0000000000e+00 0.0000e+00 1.0000e+00
        6  1    1    2  501    0 -1.1243846994e+02 +3.1451823274e+00 -1.4874328111e+01 2.0688776506e+02 1.7300000000e+02 0.0000e+00 -1.0000e+00
       -6  1    1    2    0  503 +8.8844677443e+01 -6.6207487031e+01 +1.7958254467e+02 2.7286571495e+02 1.7300000000e+02 0.0000e+00 1.0000e+00
       21  1    1    2  504  505 +1.8023856232e+00 +3.0220761870e+01 -9.2990411543e+01 9.7794476740e+01 0.0000000000e+00 0.0000e+00 1.0000e+00
       21  1    1    2  505  502 +2.1791406875e+01 +3.2841542834e+01 -6.5891917393e+01 7.6780056831e+01 0.0000000000e+00 0.0000e+00 1.0000e+00
<mgrwt>
<rscale>  4 0.20340133E+03</rscale>
<asrwt>0</asrwt>
<pdfrwt beam="1">  1       21 0.50781069E-01 0.20340133E+03</pdfrwt>
<pdfrwt beam="2">  1       21 0.49884779E-01 0.20340133E+03</pdfrwt>
<totfact> 0.14027172E+04</totfact>
</mgrwt>
</event>
<event>
 6      1 +2.5168323e+02 2.23838300e+02 7.54677100e-03 1.04003000e-01
       21 -1    0    0  504  502 +0.0000000000e+00 +0.0000000000e+00 +1.2320060222e+03 1.2320060222e+03 0.0000000000e+00 0.0000e+00 -1.0000e+00
       21 -1    0    0  505  503 -0.0000000000e+00 -0.0000000000e+00 -5.5935580489e+01 5.5935580489e+01 0.0000000000e+00 0.0000e+00 -1.0000e+00
        6  1    1    2  501    0 +4.6203537183e+01 +1.1104816694e+02 +5.8782290700e+02 6.2444473912e+02 1.7300000000e+02 0.0000e+00 -1.0000e+00
       -6  1    1    2    0  503 -5.7627218348e+01 -1.5546889028e+02 +4.3355767970e+02 4.9537130898e+02 1.7300000000e+02 0.0000e+00 -1.0000e+00
       21  1    1    2  504  501 +3.7320482132e+00 +2.4360151604e+01 +2.0016123528e+01 3.1748864092e+01 0.0000000000e+00 0.0000e+00 1.0000e+00
       21  1    1    2  505  502 +7.6916329521e+00 +2.0060571733e+01 +1.3467373148e+02 1.3637669048e+02 0.0000000000e+00 0.0000e+00 -1.0000e+00
<mgrwt>
<rscale>  4 0.22383828E+03</rscale>
<asrwt>0</asrwt>
<pdfrwt beam="1">  1       21 0.18953937E+00 0.22383828E+03</pdfrwt>
<pdfrwt beam="2">  1       21 0.86054748E-02 0.22383828E+03</pdfrwt>
<totfact> 0.16220922E+04</totfact>
</mgrwt>
</event>
<event>
 6      1 +2.5168323e+02 1.87210300e+02 7.54677100e-03 1.07064900e-01
       21 -1    0    0  501  502 +0.0000000000e+00 +0.0000000000e+00 +1.3411502109e+02 1.3411502109e+02 0.0000000000e+00 0.0000e+00 -1.0000e+00
       21 -1    0    0  504  503 -0.0000000000e+00 -0.0000000000e+00 -4.9306578166e+02 4.9306578166e+02 0.0000000000e+00 0.0000e+00 1.0000e+00
        6  1    1    2  501    0 -8.2624342913e+01 +3.7573476825e+01 -1.0140532375e+02 2.2011494244e+02 1.7300000000e+02 0.0000e+00 -1.0000e+00
       -6  1    1    2    0  503 +5.6624520535e+01 -2.6901147688e+01 -2.8207922806e+02 3.3679028931e+02 1.7300000000e+02 0.0000e+00 1.0000e+00
       21  1    1    2  504  505 +2.8534704593e+01 +1.6318705439e+01 -1.2048744967e+00 3.2893483184e+01 0.0000000000e+00 0.0000e+00 1.0000e+00
       21  1    1    2  505  502 -2.5348822146e+00 -2.6991034576e+01 +2.5738665734e+01 3.7382087811e+01 0.0000000000e+00 0.0000e+00 1.0000e+00
<mgrwt>
<rscale>  4 0.18721030E+03</rscale>
<asrwt>0</asrwt>
<pdfrwt beam="1">  1       21 0.20633080E-01 0.18721030E+03</pdfrwt>
<pdfrwt beam="2">  1       21 0.75856274E-01 0.18721030E+03</pdfrwt>
<totfact> 0.33852072E+04</totfact>
</mgrwt>
</event>
<event>
 6      1 +2.5168323e+02 2.66597000e+02 7.54677100e-03 1.17132900e-01
       21 -1    0    0  503  502 +0.0000000000e+00 +0.0000000000e+00 +3.1906830124e+02 3.1906830124e+02 0.0000000000e+00 0.0000e+00 1.0000e+00
       21 -1    0    0  504  503 -0.0000000000e+00 -0.0000000000e+00 -1.1034416229e+03 1.1034416229e+03 0.0000000000e+00 0.0000e+00 -1.0000e+00
        6  1    1    2  501    0 -1.4516088656e+02 -2.2080680346e+02 -4.9201970277e+02 5.8467060415e+02 1.7300000000e+02 0.0000e+00 -1.0000e+00
       -6  1    1    2    0  505 +9.5084622154e+01 +1.2266401040e+02 -2.7684920871e+02 3.6147203098e+02 1.7300000000e+02 0.0000e+00 -1.0000e+00
       21  1    1    2  504  501 +9.2750765829e+00 +8.1025829390e+01 -2.3692523338e+02 2.5056890926e+02 0.0000000000e+00 0.0000e+00 1.0000e+00
       21  1    1    2  505  502 +4.0801187823e+01 +1.7116963672e+01 +2.2142082318e+02 2.2579837978e+02 0.0000000000e+00 0.0000e+00 1.0000e+00
<mgrwt>
<rscale>  4 0.26659697E+03</rscale>
<asrwt>0</asrwt>
<pdfrwt beam="1">  1       21 0.49087431E-01 0.26659697E+03</pdfrwt>
<pdfrwt beam="2">  1       21 0.16976025E+00 0.26659697E+03</pdfrwt>
<totfact> 0.79074621E+02</totfact>
</mgrwt>
</event>
<event>
 6      1 +2.5168323e+02 1.81564800e+02 7.54677100e-03 1.07064900e-01
       21 -1    0    0  505  502 +0.0000000000e+00 +0.0000000000e+00 +3.3336801442e+02 3.3336801442e+02 0.0000000000e+00 0.0000e+00 -1.0000e+00
       21 -1    0    0  504  503 -0.0000000000e+00 -0.0000000000e+00 -5.4089725382e+02 5.4089725382e+02 0.0000000000e+00 0.0000e+00 -1.0000e+00
        6  1    1    2  501    0 -9.1044009041e+01 -1.4380807670e+01 -3.5870738724e+02 4.0877354229e+02 1.7300000000e+02 0.0000e+00 -1.0000e+00
       -6  1    1    2    0  503 +2.0240388183e+00 -8.8035743809e+01 -4.2780148039e+01 1.9878010461e+02 1.7300000000e+02 0.0000e+00 1.0000e+00
       21  1    1    2  504  502 +6.0560806738e+01 +1.0153145767e+02 +2.0461284261e+02 2.3631052361e+02 0.0000000000e+00 0.0000e+00 -1.0000e+00
       21  1    1    2  505  501 +2.8459163484e+01 +8.8509380983e-01 -1.0654546727e+01 3.0401097731e+01 0.0000000000e+00 0.0000e+00 -1.0000e+00
<mgrwt>
<rscale>  4 0.18156477E+03</rscale>
<asrwt>0</asrwt>
<pdfrwt beam="1">  1       21 0.51287387E-01 0.18156477E+03</pdfrwt>
<pdfrwt beam="2">  1       21 0.83214962E-01 0.18156477E+03</pdfrwt>
<totfact> 0.45854463E+03</totfact>
</mgrwt>
</event>
<event>
 6      1 +2.5168323e+02 2.16954700e+02 7.54677100e-03 1.15942100e-01
       21 -1    0    0  504  502 +0.0000000000e+00 +0.0000000000e+00 +1.5334428172e+02 1.5334428172e+02 0.0000000000e+00 0.0000e+00 1.0000e+00
       21 -1    0    0  501  503 -0.0000000000e+00 -0.0000000000e+00 -6.0731176920e+02 6.0731176920e+02 0.0000000000e+00 0.0000e+00 -1.0000e+00
        6  1    1    2  501    0 +6.1215219950e+01 -1.2264600623e+02 -4.2843492745e+00 2.2076390476e+02 1.7300000000e+02 0.0000e+00 1.0000e+00
       -6  1    1    2    0  505 -8.0188383076e+01 +8.7954248114e+01 -2.3946595489e+02 3.1849500796e+02 1.7300000000e+02 0.0000e+00 -1.0000e+00
       21  1    1    2  504  503 -1.0837455347e+01 +2.6001360841e+01 -1.5920146737e+02 1.6167445196e+02 0.0000000000e+00 0.0000e+00 -1.0000e+00
       21  1    1    2  505  502 +2.9810618474e+01 +8.6903972758e+00 -5.1015715945e+01 5.9722686242e+01 0.0000000000e+00 0.0000e+00 1.0000e+00
<mgrwt>
<rscale>  4 0.21695472E+03</rscale>
<asrwt>0</asrwt>
<pdfrwt beam="1">  1       21 0.23591428E-01 0.21695472E+03</pdfrwt>
<pdfrwt beam="2">  1       21 0.93432579E-01 0.21695472E+03</pdfrwt>
<totfact> 0.16043478E+04</totfact>
</mgrwt>
</event>
<event>
 6      1 +2.5168323e+02 1.99616700e+02 7.54677100e-03 1.11471900e-01
       21 -1    0    0  503  502 +0.0000000000e+00 +0.0000000000e+00 +1.2102245012e+03 1.2102245012e+03 0.0000000000e+00 0.0000e+00 -1.0000e+00
       21 -1    0    0  501  503 -0.0000000000e+00 -0.0000000000e+00 -9.4385091438e+01 9.4385091438e+01 0.0000000000e+00 0.0000e+00 -1.0000e+00
        6  1    1    2  501    0 -3.0804074848e+01 -8.1769685521e+01 +7.8922108911e+02 8.1267096662e+02 1.7300000000e+02 0.0000e+00 -1.0000e+00
       -6  1    1    2    0  505 -1.4181366250e+01 +1.1366537296e+02 +7.1913240340e+01 2.1959381206e+02 1.7300000000e+02 0.0000e+00 -1.0000e+00
       21  1    1    2  504  502 -1.7993265811e+01 -1.5765868893e+01 +2.9704090316e+01 3.8139916334e+01 0.0000000000e+00 0.0000e+00 -1.0000e+00
       21  1    1    2  505  504 +6.2978706908e+01 -1.6129818548e+01 +2.2500099000e+02 2.3420489763e+02 0.0000000000e+00 0.0000e+00 -1.0000e+00
<mgrwt>
<rscale>  4 0.19961674E+03</rscale>
<asrwt>0</asrwt>
<pdfrwt beam="1">  1       21 0.18618837E+00 0.19961674E+03</pdfrwt>
<pdfrwt beam="2">  1       21 0.14520784E-01 0.19961674E+03</pdfrwt>
<totfact> 0.68381743E+03</totfact>
</mgrwt>
</event>
<event>
 6      1 +2.5168323e+02 2.43440800e+02 7.54677100e-03 9.87464100e-02
       21 -1    0    0  503  502 +0.0000000000e+00 +0.0000000000e+00 +2.5049232360e+03 2.5049232360e+03 0.0000000000e+00 0.0000e+00 1.0000e+00
       21 -1    0    0  505  503 -0.0000000000e+00 -0.0000000000e+00 -9.0091154128e+01 9.0091154128e+01 0.0000000000e+00 0.0000e+00 -1.0000e+00
        6  1    1    2  501    0 -5.2346020818e+00 +1.8592022691e+02 +1.7609810761e+03 1.7792068689e+03 1.7300000000e+02 0.0000e+00 1.0000e+00
       -6  1    1    2    0  504 +1.6725392815e+02 -8.4892192060e+01 +3.4849972438e+02 4.3192779333e+02 1.7300000000e+02 0.0000e+00 -1.0000e+00
       21  1    1    2  504  502 -1.6324621892e+02 -7.6612279784e+01 +3.1034077041e+02 3.5892918965e+02 0.0000000000e+00 0.0000e+00 1.0000e+00
       21  1    1    2  505  501 +1.2268928531e+00 -2.4415755062e+01 -4.9894889999e+00 2.4950538307e+01 0.0000000000e+00 0.0000e+00 -1.0000e+00
<mgrwt>
<rscale>  4 0.24344081E+03</rscale>
<asrwt>0</asrwt>
<pdfrwt beam="1">  1       21 0.38537275E+00 0.24344081E+03</pdfrwt>
<pdfrwt beam="2">  1       21 0.13860179E-01 0.24344081E+03</pdfrwt>
<totfact> 0.45135196E+02</totfact>
</mgrwt>
</event>
<event>
 6      1 +2.5168323e+02 2.27241700e+02 7.54677100e-03 1.16820100e-01
       21 -1    0    0  505  502 +0.0000000000e+00 +0.0000000000e+00 +6.6664327355e+02 6.6664327355e+02 0.0000000000e+00 0.0000e+00 -1.0000e+00
       21 -1    0    0  501  503 -0.0000000000e+00 -0.0000000000e+00 -1.3750858417e+02 1.3750858417e+02 0.0000000000e+00 0.0000e+00 -1.0000e+00
        6  1    1    2  501    0 +9.5948110092e+01 -8.3050978533e+01 +7.9703655105e+01 2.2887808436e+02 1.7300000000e+02 0.0000e+00 -1.0000e+00
       -6  1    1    2    0  502 -1.3011667917e+02 +8.5291767568e+01 +4.4029989379e+02 4.9799400828e+02 1.7300000000e+02 0.0000e+00 -1.0000e+00
       21  1    1    2  504  503 +2.7351534531e+01 -3.0174870839e+01 -1.0992297953e+01 4.2183644765e+01 0.0000000000e+00 0.0000e+00 -1.0000e+00
       21  1    1    2  505  504 +6.8170345477e+00 +2.7934081805e+01 +2.0123438434e+01 3.5096120308e+01 0.0000000000e+00 0.0000e+00 -1.0000e+00
<mgrwt>
<rscale>  4 0.22724166E+03</rscale>
<asrwt>0</asrwt>
<pdfrwt beam="1">  1       21 0.10256050E+00 0.22724166E+03</pdfrwt>
<pdfrwt beam="2">  1       21 0.21155167E-01 0.22724166E+03</pdfrwt>
<totfact> 0.15718710E+04</totfact>
</mgrwt>
</event>
<event>
 6      1 +2.5168323e+02 1.97783600e+02 7.54677100e-03 9.87464100e-02
       21 -1    0    0  503  502 +0.0000000000e+00 +0.0000000000e+00 +4.0253620627e+02 4.0253620627e+02 0.0000000000e+00 0.0000e+00 1.0000e+00
       21 -1    0    0  505  503 -0.0000000000e+00 -0.0000000000e+00 -4.6845411915e+02 4.6845411915e+02 0.0000000000e+00 0.0000e+00 1.0000e+00
        6  1    1    2  501    0 -5.1013380676e+01 +2.4087137698e+01 +7.4021536184e+00 1.8211630100e+02 1.7300000000e+02 0.0000e+00 1.0000e+00
       -6  1    1    2    0  504 +9.3903648810e+01 -7.1287568598e+01 +2.4943736139e+02 3.2564982720e+02 1.7300000000e+02 0.0000e+00 1.0000e+00
       21  1    1    2  504  502 +1.4304254734e+01 +2.7024143393e+01 +4.0440187260e+00 3.0842667152e+01 0.0000000000e+00 0.0000e+00 -1.0000e+00
       21  1    1    2  505  501 -5.7194522867e+01 +2.0176287507e+01 -3.2680144662e+02 3.3238153008e+02 0.0000000000e+00 0.0000e+00 1.0000e+00
<mgrwt>
<rscale>  4 0.19778357E+03</rscale>
<asrwt>0</asrwt>
<pdfrwt beam="1">  1       21 0.61928647E-01 0.19778357E+03</pdfrwt>
<pdfrwt beam="2">  1       21 0.72069865E-01 0.19778357E+03</pdfrwt>
<totfact> 0.41880012E+03</totfact>
</mgrwt>
</event>
<event>
 6      1 +2.5168323e+02 2.02610400e+02 7.54677100e-03 1.17132900e-01
       21 -1    0    0  505  502 +0.0000000000e+00 +0.0000000000e+00 +1.0781294083e+03 1.0781294083e+03 0.0000000000e+00 0.0000e+00 -1.0000e+00
       21 -1    0    0  504  503 -0.0000000000e+00 -0.0000000000e+00 -1.5969501486e+02 1.5969501486e+02 0.0000000000e+00 0.0000e+00 -1.0000e+00
        6  1    1    2  501    0 -3.3993204217e+01 -1.0260763670e+02 +1.1530674073e+02 2.3432564840e+02 1.7300000000e+02 0.0000e+00 -1.0000e+00
       -6  1    1    2    0  502 +1.7093359069e+02 +9.4068452671e+00 +6.4123235403e+02 6.8586785390e+02 1.7300000000e+02 0.0000e+00 -1.0000e+00
       21  1    1    2  504  501 -3.1670118423e+01 +2.4569351316e+01 -5.4344411974e+01 6.7527509489e+01 0.0000000000e+00 0.0000e+00 -1.0000e+00
       21  1    1    2  505  503 -1.0527026805e+02 +6.8631440120e+01 +2.1623971065e+02 2.5010341135e+02 0.0000000000e+00 0.0000e+00 1.0000e+00
<mgrwt>
<rscale>  4 0.20261037E+03</rscale>
<asrwt>0</asrwt>
<pdfrwt beam="1">  1       21 0.16586606E+00 0.20261037E+03</pdfrwt>
<pdfrwt beam="2">  1       21 0.24568465E-01 0.20261037E+03</pdfrwt>
<totfact> 0.35423498E+03</totfact>
</mgrwt>
</event>
<event>
 6      1 +2.5168323e+02 1.83629400e+02 7.54677100e-03 1.17132900e-01
       21 -1    0    0  505  502 +0.0000000000e+00 +0.0000000000e+00 +9.6722569804e+02 9.6722569804e+02 0.0000000000e+00 0.0000e+00 -1.0000e+00
       21 -1    0    0  504  503 -0.0000000000e+00 -0.0000000000e+00 -1.2293533453e+02 1.2293533453e+02 0.0000000000e+00 0.0000e+00 1.0000e+00
        6  1    1    2  501    0 -6.2418532761e+01 -4.1495419237e+01 +1.8413636360e+02 2.6353964303e+02 1.7300000000e+02 0.0000e+00 -1.0000e+00
       -6  1    1    2    0  502 +5.3200588440e+00 +7.1359361468e+01 +3.5853257703e+02 4.0446887431e+02 1.7300000000e+02 0.0000e+00 -1.0000e+00
       21  1    1    2  504  501 +1.4494191226e+01 +1.4468901402e+01 -5.5821514304e+01 5.9459836413e+01 0.0000000000e+00 0.0000e+00 1.0000e+00
       21  1    1    2  505  503 +4.2604282692e+01 -4.4332843632e+01 +3.5744293718e+02 3.6269267882e+02 0.0000000000e+00 0.0000e+00 -1.0000e+00
<mgrwt>
<rscale>  4 0.18362945E+03</rscale>
<asrwt>0</asrwt>
<pdfrwt beam="1">  1       21 0.14880395E+00 0.18362945E+03</pdfrwt>
<pdfrwt beam="2">  1       21 0.18913129E-01 0.18362945E+03</pdfrwt>
<totfact> 0.78754938E+03</totfact>
</mgrwt>
</event>
<event>
 6      1 +2.5168323e+02 2.24309600e+02 7.54677100e-03 1.16820100e-01
       21 -1    0    0  504  502 +0.0000000000e+00 +0.0000000000e+00 +9.3917514771e+02 9.3917514771e+02 0.0000000000e+00 0.0000e+00 1.0000e+00
       21 -1    0    0  501  503 -0.0000000000e+00 -0.0000000000e+00 -2.1120818514e+03 2.1120818514e+03 0.0000000000e+00 0.0000e+00 -1.0000e+00
        6  1    1    2  501    0 +5.7718250419e+01 -1.1686325948e+02 +3.6378128829e+01 2.1963785217e+02 1.7300000000e+02 0.0000e+00 1.0000e+00
       -6  1    1    2    0  505 -1.4419469193e+02 +9.7290615842e+01 -3.4212557037e+01 2.4770359741e+02 1.7300000000e+02 0.0000e+00 -1.0000e+00
       21  1    1    2  504  503 +1.0332976005e+02 +3.4330894746e+01 -1.8777382857e+03 1.8808925326e+03 0.0000000000e+00 0.0000e+00 -1.0000e+00
       21  1    1    2  505  502 -1.6853318538e+01 -1.4758251109e+01 +7.0266601025e+02 7.0302301690e+02 0.0000000000e+00 0.0000e+00 1.0000e+00
<mgrwt>
<rscale>  4 0.22430958E+03</rscale>
<asrwt>0</asrwt>
<pdfrwt beam="1">  1       21 0.14448848E+00 0.22430958E+03</pdfrwt>
<pdfrwt beam="2">  1       21 0.32493567E+00 0.22430958E+03</pdfrwt>
<totfact> 0.75979281E+00</totfact>
</mgrwt>
</event>
<event>
 6      1 +2.5168323e+02 2.84135900e+02 7.54677100e-03 1.16820100e-01
       21 -1    0    0  505  502 +0.0000000000e+00 +0.0000000000e+00 +3.3491211645e+02 3.3491211645e+02 0.0000000000e+00 0.0000e+00 -1.0000e+00
       21 -1    0    0  504  503 -0.0000000000e+00 -0.0000000000e+00 -3.4684470676e+02 3.4684470676e+02 0.0000000000e+00 0.0000e+00 1.0000e+00
        6  1    1    2  501    0 +1.9694766817e+02 +2.4323865014e+01 +1.1450639186e+02 2.8709013948e+02 1.7300000000e+02 0.0000e+00 -1.0000e+00
       -6  1    1    2    0  503 -2.4560761367e+02 -4.4966655610e+01 -1.2915167001e+02 3.3008219261e+02 1.7300000000e+02 0.0000e+00 -1.0000e+00
       21  1    1    2  504  502 +1.9085858371e+01 +7.6477486740e+00 -1.7054139835e+01 2.6713325047e+01 0.0000000000e+00 0.0000e+00 1.0000e+00
       21  1    1    2  505  501 +2.9574087132e+01 +1.2995041922e+01 +1.9766827676e+01 3.7871166084e+01 0.0000000000e+00 0.0000e+00 -1.0000e+00
<mgrwt>
<rscale>  4 0.28413588E+03</rscale>
<asrwt>0</asrwt>
<pdfrwt beam="1">  1       21 0.51524941E-01 0.28413588E+03</pdfrwt>
<pdfrwt beam="2">  1       21 0.53360724E-01 0.28413588E+03</pdfrwt>
<totfact> 0.11296489E+04</totfact>
</mgrwt>
</event>
<event>
 6      1 +2.5168323e+02 1.88717800e+02 7.54677100e-03 1.11910500e-01
       21 -1    0    0  501  502 +0.0000000000e+00 +0.0000000000e+00 +2.0666061868e+03 2.0666061868e+03 0.0000000000e+00 0.0000e+00 1.0000e+00
       21 -1    0    0  505  503 -0.0000000000e+00 -0.0000000000e+00 -2.2166942571e+02 2.2166942571e+02 0.0000000000e+00 0.0000e+00 1.0000e+00
        6  1    1    2  501    0 -6.0065343422e+01 -3.1358751186e+01 +1.7933658605e+03 1.8029645937e+03 1.7300000000e+02 0.0000e+00 1.0000e+00
       -6  1    1    2    0  504 +1.7859623422e+02 +1.1201346224e+02 +1.3488394786e+02 3.0424711994e+02 1.7300000000e+02 0.0000e+00 1.0000e+00
       21  1    1    2  504  503 -6.0150749310e+00 -4.1013912549e+01 -2.0579325697e+01 4.6279917838e+01 0.0000000000e+00 0.0000e+00 1.0000e+00
       21  1    1    2  505  502 -1.1251581587e+02 -3.9640798506e+01 -6.2733721519e+01 1.3478398103e+02 0.0000000000e+00 0.0000e+00 1.0000e+00
<mgrwt>
<rscale>  4 0.18871775E+03</rscale>
<asrwt>0</asrwt>
<pdfrwt beam="1">  1       21 0.31793940E+00 0.18871775E+03</pdfrwt>
<pdfrwt beam="2">  1       21 0.34102990E-01 0.18871775E+03</pdfrwt>
<totfact> 0.22428989E+02</totfact>
</mgrwt>
</event>
<event>
 6      1 +2.5168323e+02 1.92593200e+02 7.54677100e-03 1.17132900e-01
       21 -1    0    0  503  502 +0.0000000000e+00 +0.0000000000e+00 +2.7034215923e+03 2.7034215923e+03 0.0000000000e+00 0.0000e+00 1.0000e+00
       21 -1    0    0  504  503 -0.0000000000e+00 -0.0000000000e+00 -9.7512458807e+01 9.7512458807e+01 0.0000000000e+00 0.0000e+00 1.0000e+00
        6  1    1    2  501    0 -2.7701992718e+01 -8.5529374692e+01 +2.3977346927e+02 3.0903558193e+02 1.7300000000e+02 0.0000e+00 -1.0000e+00
       -6  1    1    2    0  505 +1.3439222970e+02 -2.1670712891e+01 +2.3389935124e+02 3.2119900017e+02 1.7300000000e+02 0.0000e+00 1.0000e+00
       21  1    1    2  504  501 -5.9612380612e+01 +1.1945226251e+01 +3.3773493468e+01 6.9548351623e+01 0.0000000000e+00 0.0000e+00 1.0000e+00
       21  1    1    2  505  502 -4.7077856368e+01 +9.5254861331e+01 +2.0984628195e+03 2.1011511174e+03 0.0000000000e+00 0.0000e+00 1.0000e+00
<mgrwt>
<rscale>  4 0.19259323E+03</rscale>
<asrwt>0</asrwt>
<pdfrwt beam="1">  1       21 0.41591096E+00 0.19259323E+03</pdfrwt>
<pdfrwt beam="2">  1       21 0.15001919E-01 0.19259323E+03</pdfrwt>
<totfact> 0.27144681E+02</totfact>
</mgrwt>
</event>
<event>
 6      1 +2.5168323e+02 1.88132800e+02 7.54677100e-03 1.17132900e-01
       21 -1    0    0  505  502 +0.0000000000e+00 +0.0000000000e+00 +6.1235009559e+02 6.1235009559e+02 0.0000000000e+00 0.0000e+00 1.0000e+00
       21 -1    0    0  504  503 -0.0000000000e+00 -0.0000000000e+00 -4.9323267123e+02 4.9323267123e+02 0.0000000000e+00 0.0000e+00 -1.0000e+00
        6  1    1    2  501    0 -6.1679006542e+00 -1.0810023279e+02 -2.8687879482e+02 3.5206838291e+02 1.7300000000e+02 0.0000e+00 -1.0000e+00
       -6  1    1    2    0  502 -4.4438714481e+01 +1.5109798211e+01 -9.7887317862e+01 2.0424013402e+02 1.7300000000e+02 0.0000e+00 1.0000e+00
       21  1    1    2  504  501 +4.2387189541e+01 +5.8540964944e+01 +3.7270700723e+01 8.1319269217e+01 0.0000000000e+00 0.0000e+00 1.0000e+00
       21  1    1    2  505  503 +8.2194255950e+00 +3.4449469632e+01 +4.6661283632e+02 4.6795498067e+02 0.0000000000e+00 0.0000e+00 1.0000e+00
<mgrwt>
<rscale>  4 0.18813284E+03</rscale>
<asrwt>0</asrwt>
<pdfrwt beam="1">  1       21 0.94207707E-01 0.18813284E+03</pdfrwt>
<pdfrwt beam="2">  1       21 0.75881950E-01 0.18813284E+03</pdfrwt>
<totfact> 0.14696208E+03</totfact>
</mgrwt>
</event>
<event>
 6      1 +2.5168323e+02 6.01134700e+02 7.54677100e-03 9.87464100e-02
       21 -1    0    0  503  502 +0.0000000000e+00 +0.0000000000e+00 +1.0602165443e+03 1.0602165443e+03 0.0000000000e+00 0.0000e+00 -1.0000e+00
       21 -1    0    0  505  503 -0.0000000000e+00 -0.0000000000e+00 -5.6913351777e+02 5.6913351777e+02 0.0000000000e+00 0.0000e+00 1.0000e+00
        6  1    1    2  501    0 +5.3933894115e+02 -2.3333413374e+02 +7.0413134164e+02 9.3330662576e+02 1.7300000000e+02 0.0000e+00 -1.0000e+00
       -6  1    1    2    0  504 -5.0536983707e+02 +2.7021736472e+02 -1.8887646648e+02 6.2770965901e+02 1.7300000000e+02 0.0000e+00 1.0000e+00
       21  1    1    2  504  502 -2.1116619409e+01 -1.0187150365e+01 +7.8334596463e+00 2.4719480938e+01 0.0000000000e+00 0.0000e+00 1.0000e+00
       21  1    1    2  505  501 -1.2852484665e+01 -2.6696080613e+01 -3.2005308324e+01 4.3614296316e+01 0.0000000000e+00 0.0000e+00 1.0000e+00
<mgrwt>
<rscale>  4 0.60113465E+03</rscale>
<asrwt>0</asrwt>
<pdfrwt beam="1">  1       21 0.16311024E+00 0.60113465E+03</pdfrwt>
<pdfrwt beam="2">  1       21 0.87559003E-01 0.60113465E+03</pdfrwt>
<totfact> 0.20430808E+02</totfact>
</mgrwt>
</event>
<event>
 6      1 +2.5168323e+02 1.77138800e+02 7.54677100e-03 1.16519500e-01
       21 -1    0    0  505  502 +0.0000000000e+00 +0.0000000000e+00 +6.5289124761e+02 6.5289124761e+02 0.0000000000e+00 0.0000e+00 -1.0000e+00
       21 -1    0    0  504  503 -0.0000000000e+00 -0.0000000000e+00 -1.4237830914e+02 1.4237830914e+02 0.0000000000e+00 0.0000e+00 -1.0000e+00
        6  1    1    2  501    0 +1.4361742003e+01 +6.4677970977e+01 +3.4417588997e+01 1.8842258356e+02 1.7300000000e+02 0.0000e+00 1.0000e+00
       -6  1    1    2    0  503 -3.2754947740e+01 +8.4110087724e+01 +2.5426359695e+02 3.2050954774e+02 1.7300000000e+02 0.0000e+00 1.0000e+00
       21  1    1    2  504  502 +4.1898697512e+00 -1.1949497375e+02 +8.7625418780e+01 1.4823905617e+02 0.0000000000e+00 0.0000e+00 -1.0000e+00
       21  1    1    2  505  501 +1.4203335986e+01 -2.9293084955e+01 +1.3420633375e+02 1.3809836928e+02 0.0000000000e+00 0.0000e+00 -1.0000e+00
<mgrwt>
<rscale>  4 0.17713877E+03</rscale>
<asrwt>0</asrwt>
<pdfrwt beam="1">  1       21 0.10044481E+00 0.17713877E+03</pdfrwt>
<pdfrwt beam="2">  1       21 0.21904356E-01 0.17713877E+03</pdfrwt>
<totfact> 0.15971267E+04</totfact>
</mgrwt>
</event>
<event>
 6      1 +2.5168323e+02 2.13797500e+02 7.54677100e-03 1.11910500e-01
       21 -1    0    0  501  502 +0.0000000000e+00 +0.0000000000e+00 +7.9429443209e+02 7.9429443209e+02 0.0000000000e+00 0.0000e+00 1.0000e+00
       21 -1    0    0  505  503 -0.0000000000e+00 -0.0000000000e+00 -2.2733748474e+02 2.2733748474e+02 0.0000000000e+00 0.0000e+00 1.0000e+00
        6  1    1    2  501    0 +2.0672951698e+02 -5.4900312108e+01 +3.2889286331e+02 4.2877809295e+02 1.7300000000e+02 0.0000e+00 1.0000e+00
       -6  1    1    2    0  504 -8.1088338792e+01 +9.3161502138e+00 +3.3828012579e+02 3.8861877573e+02 1.7300000000e+02 0.0000e+00 1.0000e+00
       21  1    1    2  504  503 +3.0915600012e+00 -2.2560235689e+01 -4.1205878713e+01 4.7079150567e+01 0.0000000000e+00 0.0000e+00 1.0000e+00
       21  1    1    2  505  502 -1.2873273819e+02 +6.8144397584e+01 -5.9010163035e+01 1.5715589758e+02 0.0000000000e+00 0.0000e+00 1.0000e+00
<mgrwt>
<rscale>  4 0.21379753E+03</rscale>
<asrwt>0</asrwt>
<pdfrwt beam="1">  1       21 0.12219914E+00 0.21379753E+03</pdfrwt>
<pdfrwt beam="2">  1       21 0.34974998E-01 0.21379753E+03</pdfrwt>
<totfact> 0.39096759E+03</totfact>
</mgrwt>
</event>
<event>
 6      1 +2.5168323e+02 2.09457900e+02 7.54677100e-03 1.07064900e-01
       21 -1    0    0  501  502 +0.0000000000e+00 +0.0000000000e+00 +2.6789417360e+02 2.6789417360e+02 0.0000000000e+00 0.0000e+00 1.0000e+00
       21 -1    0    0  504  503 -0.0000000000e+00 -0.0000000000e+00 -3.2740308837e+02 3.2740308837e+02 0.0000000000e+00 0.0000e+00 1.0000e+00
        6  1    1    2  501    0 -9.8801511698e+01 +1.3919048186e+02 -2.1742812814e+01 2.4400303044e+02 1.7300000000e+02 0.0000e+00 1.0000e+00
       -6  1    1    2    0  503 +8.9456100442e+01 -3.6582731220e+01 -9.8972103741e+01 2.2150658556e+02 1.7300000000e+02 0.0000e+00 1.0000e+00
       21  1    1    2  504  505 +2.9952566425e+01 -5.8300908832e+01 +3.6752778861e+01 7.5145984325e+01 0.0000000000e+00 0.0000e+00 1.0000e+00
       21  1    1    2  505  502 -2.0607155169e+01 -4.4306841806e+01 +2.4453222922e+01 5.4641661636e+01 0.0000000000e+00 0.0000e+00 1.0000e+00
<mgrwt>
<rscale>  4 0.20945792E+03</rscale>
<asrwt>0</asrwt>
<pdfrwt beam="1">  1       21 0.41214489E-01 0.20945792E+03</pdfrwt>
<pdfrwt beam="2">  1       21 0.50369706E-01 0.20945792E+03</pdfrwt>
<totfact> 0.21064530E+04</totfact>
</mgrwt>
</event>
<event>
 6      1 +2.5168323e+02 2.19478600e+02 7.54677100e-03 1.16820100e-01
       21 -1    0    0  505  502 +0.0000000000e+00 +0.0000000000e+00 +1.4351210049e+02 1.4351210049e+02 0.0000000000e+00 0.0000e+00 1.0000e+00
       21 -1    0    0  501  503 -0.0000000000e+00 -0.0000000000e+00 -6.4428260676e+02 6.4428260676e+02 0.0000000000e+00 0.0000e+00 -1.0000e+00
        6  1    1    2  501    0 -1.5792926471e+01 +1.1111518452e+02 -2.0663736823e+02 2.9193150345e+02 1.7300000000e+02 0.0000e+00 -1.0000e+00
       -6  1    1    2    0  502 +1.0598113881e+02 -1.3698668977e+02 -1.0789731803e+02 2.6752230972e+02 1.7300000000e+02 0.0000e+00 1.0000e+00
       21  1    1    2  504  503 -1.9831082012e+01 +1.9130564659e+01 -1.4268532705e+02 1.4532154992e+02 0.0000000000e+00 0.0000e+00 -1.0000e+00
       21  1    1    2  505  504 -7.0357130327e+01 +6.7409405950e+00 -4.3550492968e+01 8.3019344165e+01 0.0000000000e+00 0.0000e+00 -1.0000e+00
<mgrwt>
<rscale>  4 0.21947863E+03</rscale>
<asrwt>0</asrwt>
<pdfrwt beam="1">  1       21 0.22078785E-01 0.21947863E+03</pdfrwt>
<pdfrwt beam="2">  1       21 0.99120401E-01 0.21947863E+03</pdfrwt>
<totfact> 0.15804165E+04</totfact>
</mgrwt>
</event>
<event>
 6      1 +2.5168323e+02 1.81623800e+02 7.54677100e-03 9.87464100e-02
       21 -1    0    0  503  502 +0.0000000000e+00 +0.0000000000e+00 +3.9671770275e+02 3.9671770275e+02 0.0000000000e+00 0.0000e+00 1.0000e+00
       21 -1    0    0  505  503 -0.0000000000e+00 -0.0000000000e+00 -7.5201846083e+02 7.5201846083e+02 0.0000000000e+00 0.0000e+00 -1.0000e+00
        6  1    1    2  501    0 +5.2699138918e+01 -1.6564660910e+01 +2.4960363560e+02 3.0867873613e+02 1.7300000000e+02 0.0000e+00 1.0000e+00
       -6  1    1    2    0  504 -6.2811601572e+01 +2.3605208249e+01 +2.4964092750e+01 1.8722902840e+02 1.7300000000e+02 0.0000e+00 -1.0000e+00
       21  1    1    2  504  502 -3.1442995401e+00 +2.1711241180e+01 +2.2606351796e-01 2.1938908767e+01 0.0000000000e+00 0.0000e+00 -1.0000e+00
       21  1    1    2  505  501 +1.3256762194e+01 -2.8751788519e+01 -6.3009454995e+02 6.3088949029e+02 0.0000000000e+00 0.0000e+00 -1.0000e+00
<mgrwt>
<rscale>  4 0.18162380E+03</rscale>
<asrwt>0</asrwt>
<pdfrwt beam="1">  1       21 0.61033493E-01 0.18162380E+03</pdfrwt>
<pdfrwt beam="2">  1       21 0.11569515E+00 0.18162380E+03</pdfrwt>
<totfact> 0.14587655E+03</totfact>
</mgrwt>
</event>
<event>
 6      1 +2.5168323e+02 2.11013400e+02 7.54677100e-03 1.17132900e-01
       21 -1    0    0  505  502 +0.0000000000e+00 +0.0000000000e+00 +5.8205851961e+02 5.8205851961e+02 0.0000000000e+00 0.0000e+00 -1.0000e+00
       21 -1    0    0  504  503 -0.0000000000e+00 -0.0000000000e+00 -4.0641891412e+02 4.0641891412e+02 0.0000000000e+00 0.0000e+00 -1.0000e+00
        6  1    1    2  501    0 +1.1460464861e+01 -1.4026860457e+02 +8.7129281733e+00 2.2318498785e+02 1.7300000000e+02 0.0000e+00 -1.0000e+00
       -6  1    1    2    0  502 +4.8912683249e+01 +1.0137456836e+02 +1.0174621645e+02 2.3010985693e+02 1.7300000000e+02 0.0000e+00 -1.0000e+00
       21  1    1    2  504  501 -1.4683901871e+01 +2.2829097301e+01 -2.3225203340e+02 2.3383282849e+02 0.0000000000e+00 0.0000e+00 -1.0000e+00
       21  1    1    2  505  503 -4.5689246240e+01 +1.6064938909e+01 +2.9743249427e+02 3.0134976046e+02 0.0000000000e+00 0.0000e+00 -1.0000e+00
<mgrwt>
<rscale>  4 0.21101344E+03</rscale>
<asrwt>0</asrwt>
<pdfrwt beam="1">  1       21 0.89547465E-01 0.21101344E+03</pdfrwt>
<pdfrwt beam="2">  1       21 0.62525987E-01 0.21101344E+03</pdfrwt>
<totfact> 0.24805732E+03</totfact>
</mgrwt>
</event>
<event>
 6      1 +2.5168323e+02 1.80512700e+02 7.54677100e-03 1.11671100e-01
       21 -1    0    0  503  502 +0.0000000000e+00 +0.0000000000e+00 +1.7659641008e+02 1.7659641008e+02 0.0000000000e+00 0.0000e+00 1.0000e+00
       21 -1    0    0  501  503 -0.0000000000e+00 -0.0000000000e+00 -8.7615536924e+02 8.7615536924e+02 0.0000000000e+00 0.0000e+00 1.0000e+00
        6  1    1    2  501    0 +3.2467336777e+01 +7.5481403674e+01 -3.5166397675e+02 4.0043491706e+02 1.7300000000e+02 0.0000e+00 -1.0000e+00
       -6  1    1    2    0  504 +1.3171770710e+02 +2.1560165989e+01 -3.5332459917e+02 4.1542949763e+02 1.7300000000e+02 0.0000e+00 1.0000e+00
       21  1    1    2  504  505 -1.0584423069e+02 -1.3122304630e+02 +1.1608494327e+01 1.6898889369e+02 0.0000000000e+00 0.0000e+00 1.0000e+00
       21  1    1    2  505  502 -5.8340813182e+01 +3.4181476635e+01 -6.1788775643e+00 6.7898470938e+01 0.0000000000e+00 0.0000e+00 1.0000e+00
<mgrwt>
<rscale>  4 0.18051271E+03</rscale>
<asrwt>0</asrwt>
<pdfrwt beam="1">  1       21 0.27168678E-01 0.18051271E+03</pdfrwt>
<pdfrwt beam="2">  1       21 0.13479313E+00 0.18051271E+03</pdfrwt>
<totfact> 0.51445749E+03</totfact>
</mgrwt>
</event>
<event>
 6      1 +2.5168323e+02 1.99232400e+02 7.54677100e-03 1.15942100e-01
       21 -1    0    0  504  502 +0.0000000000e+00 +0.0000000000e+00 +6.8566663823e+01 6.8566663823e+01 0.0000000000e+00 0.0000e+00 1.0000e+00
       21 -1    0    0  501  503 -0.0000000000e+00 -0.0000000000e+00 -3.4920726734e+03 3.4920726734e+03 0.0000000000e+00 0.0000e+00 1.0000e+00
        6  1    1    2  501    0 -9.6542151885e+01 +1.5400273001e+01 -1.2694726803e+02 2.3580111187e+02 1.7300000000e+02 0.0000e+00 1.0000e+00
       -6  1    1    2    0  502 +9.9889857389e+01 -2.8860446337e+01 -7.6700155435e+02 7.9311493073e+02 1.7300000000e+02 0.0000e+00 1.0000e+00
       21  1    1    2  504  505 +1.1992418704e+01 -1.9233829768e+01 -1.3469323988e+02 1.3658706814e+02 0.0000000000e+00 0.0000e+00 -1.0000e+00
       21  1    1    2  505  503 -1.5340124208e+01 +3.2694003104e+01 -2.3948639473e+03 2.3951362264e+03 0.0000000000e+00 0.0000e+00 1.0000e+00
<mgrwt>
<rscale>  4 0.19923241E+03</rscale>
<asrwt>0</asrwt>
<pdfrwt beam="1">  1       21 0.10548719E-01 0.19923241E+03</pdfrwt>
<pdfrwt beam="2">  1       21 0.53724189E+00 0.19923241E+03</pdfrwt>
<totfact> 0.74459954E+01</totfact>
</mgrwt>
</event>
<event>
 6      1 +2.5168323e+02 2.41772800e+02 7.54677100e-03 1.16820100e-01
       21 -1    0    0  505  502 +0.0000000000e+00 +0.0000000000e+00 +1.6798715114e+02 1.6798715114e+02 0.0000000000e+00 0.0000e+00 -1.0000e+00
       21 -1    0    0  501  503 -0.0000000000e+00 -0.0000000000e+00 -9.5049275961e+02 9.5049275961e+02 0.0000000000e+00 0.0000e+00 1.0000e+00
        6  1    1    2  501    0 -6.9820137004e+00 -1.5984575084e+02 -1.1987539233e+02 2.6438328666e+02 1.7300000000e+02 0.0000e+00 -1.0000e+00
       -6  1    1    2    0  502 -2.2680325102e+01 +1.6757429923e+02 -3.2603395347e+02 4.0598359785e+02 1.7300000000e+02 0.0000e+00 1.0000e+00
       21  1    1    2  504  503 +2.3280483409e+01 +1.4922416919e+01 -3.8935924978e+02 3.9033996058e+02 0.0000000000e+00 0.0000e+00 1.0000e+00
       21  1    1    2  505  504 +6.3818553935e+00 -2.2650965304e+01 +5.2762987110e+01 5.7773065664e+01 0.0000000000e+00 0.0000e+00 -1.0000e+00
<mgrwt>
<rscale>  4 0.24177282E+03</rscale>
<asrwt>0</asrwt>
<pdfrwt beam="1">  1       21 0.25844177E-01 0.24177282E+03</pdfrwt>
<pdfrwt beam="2">  1       21 0.14622966E+00 0.24177282E+03</pdfrwt>
<totfact> 0.43710250E+03</totfact>
</mgrwt>
</event>
<event>
 6      1 +2.5168323e+02 1.93733100e+02 7.54677100e-03 1.17132900e-01
       21 -1    0    0  505  502 +0.0000000000e+00 +0.0000000000e+00 +2.6881136370e+02 2.6881136370e+02 0.0000000000e+00 0.0000e+00 1.0000e+00
       21 -1    0    0  504  503 -0.0000000000e+00 -0.0000000000e+00 -8.5866247454e+02 8.5866247454e+02 0.0000000000e+00 0.0000e+00 1.0000e+00
        6  1    1    2  501    0 +1.5010758144e+02 -7.7214380341e+00 -3.0496793163e+02 3.8147915531e+02 1.7300000000e+02 0.0000e+00 1.0000e+00
       -6  1    1    2    0  502 -6.6122005008e+01 +2.1727926614e+01 -4.0105932501e+02 4.4229153793e+02 1.7300000000e+02 0.0000e+00 1.0000e+00
       21  1    1    2  504  501 +4.6783855230e+01 -1.4462436101e+01 -6.4304195076e+01 8.0826484970e+01 0.0000000000e+00 0.0000e+00 1.0000e+00
       21  1    1    2  505  503 -1.3076943166e+02 +4.5594752100e-01 +1.8048034089e+02 2.2287666004e+02 0.0000000000e+00 0.0000e+00 1.0000e+00
<mgrwt>
<rscale>  4 0.19373305E+03</rscale>
<asrwt>0</asrwt>
<pdfrwt beam="1">  1       21 0.41355595E-01 0.19373305E+03</pdfrwt>
<pdfrwt beam="2">  1       21 0.13210192E+00 0.19373305E+03</pdfrwt>
<totfact> 0.23348514E+03</totfact>
</mgrwt>
</event>
<event>
 6      1 +2.5168323e+02 1.88769700e+02 7.54677100e-03 1.15942100e-01
       21 -1    0    0  504  502 +0.0000000000e+00 +0.0000000000e+00 +9.3678436387e+01 9.3678436387e+01 0.0000000000e+00 0.0000e+00 -1.0000e+00
       21 -1    0    0  501  503 -0.0000000000e+00 -0.0000000000e+00 -1.2704848835e+03 1.2704848835e+03 0.0000000000e+00 0.0000e+00 1.0000e+00
        6  1    1    2  501    0 +9.8096004089e+00 -3.8628747696e+01 -3.6997414542e+02 4.1036359084e+02 1.7300000000e+02 0.0000e+00 1.0000e+00
       -6  1    1    2    0  502 -1.4616158427e+01 -1.4769757017e+02 -1.7447719175e+02 2.8705312185e+02 1.7300000000e+02 0.0000e+00 -1.0000e+00
       21  1    1    2  504  505 -2.0459790046e+01 +1.5490355904e+01 -2.7040306529e+01 3.7279113615e+01 0.0000000000e+00 0.0000e+00 -1.0000e+00
       21  1    1    2  505  503 +2.5266348063e+01 +1.7083596196e+02 -6.0531480337e+02 6.2946749354e+02 0.0000000000e+00 0.0000e+00 1.0000e+00
<mgrwt>
<rscale>  4 0.18876974E+03</rscale>
<asrwt>0</asrwt>
<pdfrwt beam="1">  1       21 0.14412067E-01 0.18876974E+03</pdfrwt>
<pdfrwt beam="2">  1       21 0.19545922E+00 0.18876974E+03</pdfrwt>
<totfact> 0.60812946E+03</totfact>
</mgrwt>
</event>
<event>
 6      1 +2.5168323e+02 1.79510400e+02 7.54677100e-03 1.17132900e-01
       21 -1    0    0  505  502 +0.0000000000e+00 +0.0000000000e+00 +3.4743137732e+02 3.4743137732e+02 0.0000000000e+00 0.0000e+00 -1.0000e+00
       21 -1    0    0  504  503 -0.0000000000e+00 -0.0000000000e+00 -4.7073308341e+02 4.7073308341e+02 0.0000000000e+00 0.0000e+00 1.0000e+00
        6  1    1    2  501    0 +2.9580203599e+01 -1.3505368508e+01 +2.0706515279e+02 2.7177630677e+02 1.7300000000e+02 0.0000e+00 -1.0000e+00
       -6  1    1    2    0  502 -1.3067417932e+02 -6.6785370859e+01 -5.8266503165e+01 2.3422214304e+02 1.7300000000e+02 0.0000e+00 -1.0000e+00
       21  1    1    2  504  501 +5.2116677348e+01 +6.9068143644e+01 -2.3284977303e+02 2.4840606539e+02 0.0000000000e+00 0.0000e+00 1.0000e+00
       21  1    1    2  505  503 +4.8977298371e+01 +1.1222595723e+01 -3.9250582683e+01 6.3759945510e+01 0.0000000000e+00 0.0000e+00 1.0000e+00
<mgrwt>
<rscale>  4 0.17951038E+03</rscale>
<asrwt>0</asrwt>
<pdfrwt beam="1">  1       21 0.53450981E-01 0.17951038E+03</pdfrwt>
<pdfrwt beam="2">  1       21 0.72420474E-01 0.17951038E+03</pdfrwt>
<totfact> 0.57524696E+03</totfact>
</mgrwt>
</event>
<event>
 6      1 +2.5168323e+02 2.70118700e+02 7.54677100e-03 1.16820100e-01
       21 -1    0    0  505  502 +0.0000000000e+00 +0.0000000000e+00 +1.9457844488e+03 1.9457844488e+03 0.0000000000e+00 0.0000e+00 1.0000e+00
       21 -1    0    0  501  503 -0.0000000000e+00 -0.0000000000e+00 -6.2329464515e+01 6.2329464515e+01 0.0000000000e+00 0.0000e+00 -1.0000e+00
        6  1    1    2  501    0 +2.1330265977e+02 -6.4829910743e+01 +6.7843622126e+02 7.3478272183e+02 1.7300000000e+02 0.0000e+00 1.0000e+00
       -6  1    1    2    0  502 -1.8669821075e+02 +4.4822428826e+01 +7.1504864751e+02 7.6032153747e+02 1.7300000000e+02 0.0000e+00 -1.0000e+00
       21  1    1    2  504  503 +7.4704499223e-03 +2.9599799695e+01 +8.6205107900e+00 3.0829554068e+01 0.0000000000e+00 0.0000e+00 -1.0000e+00
       21  1    1    2  505  504 -2.6611919470e+01 -9.5923177777e+00 +4.8134960472e+02 4.8218009994e+02 0.0000000000e+00 0.0000e+00 1.0000e+00
<mgrwt>
<rscale>  4 0.27011873E+03</rscale>
<asrwt>0</asrwt>
<pdfrwt beam="1">  1       21 0.29935141E+00 0.27011873E+03</pdfrwt>
<pdfrwt beam="2">  1       21 0.95891499E-02 0.27011873E+03</pdfrwt>
<totfact> 0.27767671E+03</totfact>
</mgrwt>
</event>
<event>
 6      1 +2.5168323e+02 2.17754600e+02 7.54677100e-03 1.16820100e-01
       21 -1    0    0  505  502 +0.0000000000e+00 +0.0000000000e+00 +1.2724363262e+02 1.2724363262e+02 0.0000000000e+00 0.0000e+00 -1.0000e+00
       21 -1    0    0  501  503 -0.0000000000e+00 -0.0000000000e+00 -7.8906618012e+02 7.8906618012e+02 0.0000000000e+00 0.0000e+00 -1.0000e+00
        6  1    1    2  501    0 -1.1183887564e+02 -1.0626620893e+01 -1.6247413398e+02 2.6257894696e+02 1.7300000000e+02 0.0000e+00 1.0000e+00
       -6  1    1    2    0  504 +1.1792844943e+02 -1.1863635345e+02 -3.6689847045e+02 4.3877692642e+02 1.7300000000e+02 0.0000e+00 -1.0000e+00
       21  1    1    2  504  502 -3.1500991634e+01 +1.3575929807e+02 -1.2614691011e+02 1.8797856904e+02 0.0000000000e+00 0.0000e+00 -1.0000e+00
       21  1    1    2  505  503 +2.5411417852e+01 -6.4963237348e+00 -6.3030329587e+00 2.6975370318e+01 0.0000000000e+00 0.0000e+00 -1.0000e+00
<mgrwt>
<rscale>  4 0.21775464E+03</rscale>
<asrwt>0</asrwt>
<pdfrwt beam="1">  1       21 0.19575943E-01 0.21775464E+03</pdfrwt>
<pdfrwt beam="2">  1       21 0.12139480E+00 0.21775464E+03</pdfrwt>
<totfact> 0.12119844E+04</totfact>
</mgrwt>
</event>
<event>
 6      1 +2.5168323e+02 1.98878600e+02 7.54677100e-03 1.17132900e-01
       21 -1    0    0  505  502 +0.0000000000e+00 +0.0000000000e+00 +6.7165883729e+02 6.7165883729e+02 0.0000000000e+00 0.0000e+00 1.0000e+00
       21 -1    0    0  504  503 -0.0000000000e+00 -0.0000000000e+00 -1.3378155242e+02 1.3378155242e+02 0.0000000000e+00 0.0000e+00 1.0000e+00
        6  1    1    2  501    0 -2.0606486667e+01 +1.2184826224e+02 +4.4221813457e+02 4.9067046461e+02 1.7300000000e+02 0.0000e+00 1.0000e+00
       -6  1    1    2    0  502 -3.4488955681e+01 -7.2369329507e+01 +3.4784438837e+01 1.9381889769e+02 1.7300000000e+02 0.0000e+00 1.0000e+00
       21  1    1    2  504  501 +5.6263508791e+01 -2.5794533577e+01 +7.2506887255e+00 6.2317837502e+01 0.0000000000e+00 0.0000e+00 1.0000e+00
       21  1    1    2  505  503 -1.1680664436e+00 -2.3684399161e+01 +5.3624022748e+01 5.8633189905e+01 0.0000000000e+00 0.0000e+00 1.0000e+00
<mgrwt>
<rscale>  4 0.19887862E+03</rscale>
<asrwt>0</asrwt>
<pdfrwt beam="1">  1       21 0.10333213E+00 0.19887862E+03</pdfrwt>
<pdfrwt beam="2">  1       21 0.20581778E-01 0.19887862E+03</pdfrwt>
<totfact> 0.16542769E+04</totfact>
</mgrwt>
</event>
<event>
 6      1 +2.5168323e+02 1.76739500e+02 7.54677100e-03 1.09842800e-01
       21 -1    0    0  505  502 +0.0000000000e+00 +0.0000000000e+00 +2.0884864541e+02 2.0884864541e+02 0.0000000000e+00 0.0000e+00 1.0000e+00
       21 -1    0    0  504  503 -0.0000000000e+00 -0.0000000000e+00 -6.8544943920e+02 6.8544943920e+02 0.0000000000e+00 0.0000e+00 1.0000e+00
        6  1    1    2  501    0 -1.2299158462e+02 -7.1588338729e+01 -3.0432072999e+02 3.7787819047e+02 1.7300000000e+02 0.0000e+00 1.0000e+00
       -6  1    1    2    0  502 -1.5712226291e+01 -3.6316242903e+01 -5.9860566339e+01 1.8729129973e+02 1.7300000000e+02 0.0000e+00 -1.0000e+00
       21  1    1    2  504  501 +1.0299624145e+02 +5.9485204703e+01 -1.9412398739e+02 2.2766387023e+02 0.0000000000e+00 0.0000e+00 1.0000e+00
       21  1    1    2  505  503 +3.5707569461e+01 +4.8419376928e+01 +8.1704489924e+01 1.0146472418e+02 0.0000000000e+00 0.0000e+00 1.0000e+00
<mgrwt>
<rscale>  4 0.17673951E+03</rscale>
<asrwt>0</asrwt>
<pdfrwt beam="1">  1       21 0.32130561E-01 0.17673951E+03</pdfrwt>
<pdfrwt beam="2">  1       21 0.10545376E+00 0.17673951E+03</pdfrwt>
<totfact> 0.68207812E+03</totfact>
</mgrwt>
</event>
<event>
 6      1 +2.5168323e+02 2.83954800e+02 7.54677100e-03 1.17132900e-01
       21 -1    0    0  503  502 +0.0000000000e+00 +0.0000000000e+00 +2.6902702146e+02 2.6902702146e+02 0.0000000000e+00 0.0000e+00 1.0000e+00
       21 -1    0    0  504  503 -0.0000000000e+00 -0.0000000000e+00 -7.5006932933e+02 7.5006932933e+02 0.0000000000e+00 0.0000e+00 -1.0000e+00
        6  1    1    2  501    0 -4.9543087262e+01 +1.8589614453e+02 +1.1080599837e+02 2.8145845754e+02 1.7300000000e+02 0.0000e+00 1.0000e+00
       -6  1    1    2    0  505 +5.4997059501e+01 -1.6744563466e+02 -5.0897965235e+02 5.6573138823e+02 1.7300000000e+02 0.0000e+00 -1.0000e+00
       21  1    1    2  504  501 +7.6798372640e+00 -7.4431336019e+01 -8.6399516086e+01 1.1429733182e+02 0.0000000000e+00 0.0000e+00 1.0000e+00
       21  1    1    2  505  502 -1.3133809502e+01 +5.5980826145e+01 +3.5308622011e+00 5.7609173191e+01 0.0000000000e+00 0.0000e+00 1.0000e+00
<mgrwt>
<rscale>  4 0.28395476E+03</rscale>
<asrwt>0</asrwt>
<pdfrwt beam="1">  1       21 0.41388773E-01 0.28395476E+03</pdfrwt>
<pdfrwt beam="2">  1       21 0.11539528E+00 0.28395476E+03</pdfrwt>
<totfact> 0.30589909E+03</totfact>
</mgrwt>
</event>
<event>
 6      1 +2.5168323e+02 1.82653700e+02 7.54677100e-03 1.16820100e-01
       21 -1    0    0  505  502 +0.0000000000e+00 +0.0000000000e+00 +1.7088566784e+02 1.7088566784e+02 0.0000000000e+00 0.0000e+00 1.0000e+00
       21 -1    0    0  504  503 -0.0000000000e+00 -0.0000000000e+00 -4.4128700958e+02 4.4128700958e+02 0.0000000000e+00 0.0000e+00 -1.0000e+00
        6  1    1    2  501    0 -3.3122452817e+01 +4.3885998909e+01 -1.5784760751e+02 2.4055757103e+02 1.7300000000e+02 0.0000e+00 -1.0000e+00
       -6  1    1    2    0  503 +4.8685393037e+01 -4.1397421307e+01 -1.5664477392e+02 2.4197231078e+02 1.7300000000e+02 0.0000e+00 -1.0000e+00
       21  1    1    2  504  502 -6.4005885949e+00 -2.9228193416e+01 -3.4768547734e+01 4.5870543230e+01 0.0000000000e+00 0.0000e+00 -1.0000e+00
       21  1    1    2  505  501 -9.1623516252e+00 +2.6739615814e+01 +7.8859587426e+01 8.3772252388e+01 0.0000000000e+00 0.0000e+00 1.0000e+00
<mgrwt>
<rscale>  4 0.18265367E+03</rscale>
<asrwt>0</asrwt>
<pdfrwt beam="1">  1       21 0.26290103E-01 0.18265367E+03</pdfrwt>
<pdfrwt beam="2">  1       21 0.67890309E-01 0.18265367E+03</pdfrwt>
<totfact> 0.27414466E+04</totfact>
</mgrwt>
</event>
<event>
 6      1 +2.5168323e+02 1.74865600e+02 7.54677100e-03 1.16820100e-01
       21 -1    0    0  505  502 +0.0000000000e+00 +0.0000000000e+00 +5.1929766284e+02 5.1929766284e+02 0.0000000000e+00 0.0000e+00 1.0000e+00
       21 -1    0    0  501  503 -0.0000000000e+00 -0.0000000000e+00 -5.7197900546e+02 5.7197900546e+02 0.0000000000e+00 0.0000e+00 1.0000e+00
        6  1    1    2  501    0 +4.3813064033e+00 -1.1176420431e+02 -2.7622825200e+02 3.4458885706e+02 1.7300000000e+02 0.0000e+00 1.0000e+00
       -6  1    1    2    0  502 +1.3746849415e+01 +1.6838374487e+01 +4.0305543779e+02 4.3915281242e+02 1.7300000000e+02 0.0000e+00 1.0000e+00
       21  1    1    2  504  503 +9.5317426374e+00 -2.9391416071e+01 -1.7749251479e+02 1.8016187794e+02 0.0000000000e+00 0.0000e+00 -1.0000e+00
       21  1    1    2  505  504 -2.7659898456e+01 +1.2431724590e+02 -2.0160136191e+00 1.2737312087e+02 0.0000000000e+00 0.0000e+00 -1.0000e+00
<mgrwt>
<rscale>  4 0.17486561E+03</rscale>
<asrwt>0</asrwt>
<pdfrwt beam="1">  1       21 0.79891949E-01 0.17486561E+03</pdfrwt>
<pdfrwt beam="2">  1       21 0.87996769E-01 0.17486561E+03</pdfrwt>
<totfact> 0.15535104E+03</totfact>
</mgrwt>
</event>
<event>
 6      1 +2.5168323e+02 2.05419900e+02 7.54677100e-03 1.15942100e-01
       21 -1    0    0  504  502 +0.0000000000e+00 +0.0000000000e+00 +3.1870225159e+02 3.1870225159e+02 0.0000000000e+00 0.0000e+00 1.0000e+00
       21 -1    0    0  501  503 -0.0000000000e+00 -0.0000000000e+00 -4.5315927640e+02 4.5315927640e+02 0.0000000000e+00 0.0000e+00 -1.0000e+00
        6  1    1    2  501    0 +7.5885100967e+01 +4.2163819268e+00 -8.2460904152e+01 2.0616771604e+02 1.7300000000e+02 0.0000e+00 -1.0000e+00
       -6  1    1    2    0  502 -3.9977995758e+01 -1.3367519536e+02 +1.8161494751e+02 2.8701966336e+02 1.7300000000e+02 0.0000e+00 1.0000e+00
       21  1    1    2  504  505 +1.8105645245e+01 +3.0568707476e+01 -8.5385910726e+01 9.2482506546e+01 0.0000000000e+00 0.0000e+00 -1.0000e+00
       21  1    1    2  505  503 -5.4012750454e+01 +9.8890105958e+01 -1.4822515743e+02 1.8619164203e+02 0.0000000000e+00 0.0000e+00 -1.0000e+00
<mgrwt>
<rscale>  4 0.20541993E+03</rscale>
<asrwt>0</asrwt>
<pdfrwt beam="1">  1       21 0.49031116E-01 0.20541993E+03</pdfrwt>
<pdfrwt beam="2">  1       21 0.69716811E-01 0.20541993E+03</pdfrwt>
<totfact> 0.73514935E+03</totfact>
</mgrwt>
</event>
<event>
 6      1 +2.5168323e+02 3.43229000e+02 7.54677100e-03 1.07240600e-01
       21 -1    0    0  505  502 +0.0000000000e+00 +0.0000000000e+00 +1.0645293531e+03 1.0645293531e+03 0.0000000000e+00 0.0000e+00 1.0000e+00
       21 -1    0    0  504  503 -0.0000000000e+00 -0.0000000000e+00 -1.2295377148e+03 1.2295377148e+03 0.0000000000e+00 0.0000e+00 1.0000e+00
        6  1    1    2  501    0 -4.7413510512e+01 -2.1247878262e+02 -2.5338893713e+02 3.7620503386e+02 1.7300000000e+02 0.0000e+00 -1.0000e+00
       -6  1    1    2    0  502 +1.9505600236e+02 +2.3643780440e+02 +9.5395807336e+02 1.0168159544e+03 1.7300000000e+02 0.0000e+00 1.0000e+00
       21  1    1    2  504  501 +2.0179571566e+01 -6.1810259200e+00 -2.0747440989e+00 2.1206714812e+01 0.0000000000e+00 0.0000e+00 -1.0000e+00
       21  1    1    2  505  503 -1.6782206341e+02 -1.7777995858e+01 -8.6350275379e+02 8.7983936483e+02 0.0000000000e+00 0.0000e+00 1.0000e+00
<mgrwt>
<rscale>  4 0.34322901E+03</rscale>
<asrwt>0</asrwt>
<pdfrwt beam="1">  1       21 0.16377375E+00 0.34322901E+03</pdfrwt>
<pdfrwt beam="2">  1       21 0.18915965E+00 0.34322901E+03</pdfrwt>
<totfact> 0.31190167E+01</totfact>
</mgrwt>
</event>
<event>
 6      1 +2.5168323e+02 6.80161500e+02 7.54677100e-03 1.11471900e-01
       21 -1    0    0  503  502 +0.0000000000e+00 +0.0000000000e+00 +8.0456789342e+02 8.0456789342e+02 0.0000000000e+00 0.0000e+00 -1.0000e+00
       21 -1    0    0  501  503 -0.0000000000e+00 -0.0000000000e+00 -1.3756157299e+03 1.3756157299e+03 0.0000000000e+00 0.0000e+00 1.0000e+00
        6  1    1    2  501    0 -2.3959631043e+01 +6.6253129616e+02 -4.5917607074e+02 8.2479903386e+02 1.7300000000e+02 0.0000e+00 -1.0000e+00
       -6  1    1    2    0  504 -1.2223995614e+02 -6.4946365769e+02 -5.4159046239e+02 8.7177685132e+02 1.7300000000e+02 0.0000e+00 1.0000e+00
       21  1    1    2  504  505 +2.8694916781e+01 -6.8969247475e+00 -7.8139902730e+00 3.0529072440e+01 0.0000000000e+00 0.0000e+00 -1.0000e+00
       21  1    1    2  505  502 +1.1750467040e+02 -6.1707137291e+00 +4.3753268687e+02 4.5307866575e+02 0.0000000000e+00 0.0000e+00 1.0000e+00
<mgrwt>
<rscale>  4 0.68016154E+03</rscale>
<asrwt>0</asrwt>
<pdfrwt beam="1">  1       21 0.12377968E+00 0.68016154E+03</pdfrwt>
<pdfrwt beam="2">  1       21 0.21163319E+00 0.68016154E+03</pdfrwt>
<totfact> 0.38393064E+01</totfact>
</mgrwt>
</event>
<event>
 6      1 +2.5168323e+02 2.36397200e+02 7.54677100e-03 1.15942100e-01
       21 -1    0    0  505  502 +0.0000000000e+00 +0.0000000000e+00 +2.4621873461e+02 2.4621873461e+02 0.0000000000e+00 0.0000e+00 -1.0000e+00
       21 -1    0    0  501  503 -0.0000000000e+00 -0.0000000000e+00 -3.0509638931e+02 3.0509638931e+02 0.0000000000e+00 0.0000e+00 -1.0000e+00
        6  1    1    2  501    0 +1.1389104215e+02 +9.7167754091e+01 -1.0245002035e+02 2.5067458704e+02 1.7300000000e+02 0.0000e+00 -1.0000e+00
       -6  1    1    2    0  504 -9.7844268988e+01 -1.3923148939e+02 +4.6253443768e+01 2.4703702085e+02 1.7300000000e+02 0.0000e+00 -1.0000e+00
       21  1    1    2  504  502 +2.6583926267e-01 +2.6078390994e+01 -1.2283523271e+01 2.8827731289e+01 0.0000000000e+00 0.0000e+00 1.0000e+00
       21  1    1    2  505  503 -1.6312612427e+01 +1.5985344308e+01 +9.6024451523e+00 2.4775784745e+01 0.0000000000e+00 0.0000e+00 1.0000e+00
<mgrwt>
<rscale>  4 0.23639724E+03</rscale>
<asrwt>0</asrwt>
<pdfrwt beam="1">  1       21 0.37879805E-01 0.23639724E+03</pdfrwt>
<pdfrwt beam="2">  1       21 0.46937906E-01 0.23639724E+03</pdfrwt>
<totfact> 0.28541955E+04</totfact>
</mgrwt>
</event>
<event>
 6      1 +2.5168323e+02 2.04965500e+02 7.54677100e-03 1.09842800e-01
       21 -1    0    0  505  502 +0.0000000000e+00 +0.0000000000e+00 +5.3721545821e+02 5.3721545821e+02 0.0000000000e+00 0.0000e+00 -1.0000e+00
       21 -1    0    0  501  503 -0.0000000000e+00 -0.0000000000e+00 -1.8626206542e+02 1.8626206542e+02 0.0000000000e+00 0.0000e+00 1.0000e+00
        6  1    1    2  501    0 -1.4371340838e+02 -4.9765294417e+01 +2.7045230086e+02 3.5525142549e+02 1.7300000000e+02 0.0000e+00 1.0000e+00
       -6  1    1    2    0  504 +8.7948706330e+01 +4.7953729316e+01 -5.8145952388e+01 2.0819338817e+02 1.7300000000e+02 0.0000e+00 1.0000e+00
       21  1    1    2  504  502 +2.5441080311e+01 -2.7694215782e+01 +6.4281652156e+01 7.4473813915e+01 0.0000000000e+00 0.0000e+00 -1.0000e+00
       21  1    1    2  505  503 +3.0323621735e+01 +2.9505780883e+01 +7.4365392167e+01 8.5558896047e+01 0.0000000000e+00 0.0000e+00 -1.0000e+00
<mgrwt>
<rscale>  4 0.20496550E+03</rscale>
<asrwt>0</asrwt>
<pdfrwt beam="1">  1       21 0.82648531E-01 0.20496550E+03</pdfrwt>
<pdfrwt beam="2">  1       21 0.28655703E-01 0.20496550E+03</pdfrwt>
<totfact> 0.14763763E+04</totfact>
</mgrwt>
</event>
<event>
 6      1 +2.5168323e+02 3.62568300e+02 7.54677100e-03 1.12989000e-01
       21 -1    0    0  505  502 +0.0000000000e+00 +0.0000000000e+00 +1.1293704630e+03 1.1293704630e+03 0.0000000000e+00 0.0000e+00 -1.0000e+00
       21 -1    0    0  502  503 -0.0000000000e+00 -0.0000000000e+00 -2.0194166223e+02 2.0194166223e+02 0.0000000000e+00 0.0000e+00 1.0000e+00
        6  1    1    2  501    0 -2.2624042909e+02 +2.0550653426e+02 +6.3909461340e+02 7.2923836449e+02 1.7300000000e+02 0.0000e+00 -1.0000e+00
       -6  1    1    2    0  503 +3.1556249767e+02 -1.0269760097e+02 +1.4895432219e+02 4.0279383968e+02 1.7300000000e+02 0.0000e+00 1.0000e+00
       21  1    1    2  504  501 -7.1778855345e+01 -9.1887780752e+01 +9.5279748924e+01 1.5057821516e+02 0.0000000000e+00 0.0000e+00 -1.0000e+00
       21  1    1    2  505  504 -1.7543213237e+01 -1.0921152532e+01 +4.4100116230e+01 4.8701705871e+01 0.0000000000e+00 0.0000e+00 1.0000e+00
<mgrwt>
<rscale>  4 0.36256829E+03</rscale>
<asrwt>0</asrwt>
<pdfrwt beam="1">  1       21 0.17374930E+00 0.36256829E+03</pdfrwt>
<pdfrwt beam="2">  1       21 0.31067949E-01 0.36256829E+03</pdfrwt>
<totfact> 0.17681797E+03</totfact>
</mgrwt>
</event>
<event>
 6      1 +2.5168323e+02 1.82648800e+02 7.54677100e-03 1.17132900e-01
       21 -1    0    0  503  502 +0.0000000000e+00 +0.0000000000e+00 +4.9145424623e+02 4.9145424623e+02 0.0000000000e+00 0.0000e+00 -1.0000e+00
       21 -1    0    0  504  503 -0.0000000000e+00 -0.0000000000e+00 -1.4404994923e+02 1.4404994923e+02 0.0000000000e+00 0.0000e+00 -1.0000e+00
        6  1    1    2  501    0 -2.9848598046e+01 +5.9020517096e+01 +5.0698060736e+01 1.9202513795e+02 1.7300000000e+02 0.0000e+00 -1.0000e+00
       -6  1    1    2    0  505 +2.3142976799e+01 -4.4705240541e+01 +6.7380032441e+01 1.9236222259e+02 1.7300000000e+02 0.0000e+00 -1.0000e+00
       21  1    1    2  504  501 -2.7846677859e+01 -9.9700760476e+00 +1.3524084620e+01 3.2522926513e+01 0.0000000000e+00 0.0000e+00 -1.0000e+00
       21  1    1    2  505  502 +3.4552299107e+01 -4.3452005071e+00 +2.1580211920e+02 2.1859390841e+02 0.0000000000e+00 0.0000e+00 -1.0000e+00
<mgrwt>
<rscale>  4 0.18264880E+03</rscale>
<asrwt>0</asrwt>
<pdfrwt beam="1">  1       21 0.75608345E-01 0.18264880E+03</pdfrwt>
<pdfrwt beam="2">  1       21 0.22161531E-01 0.18264880E+03</pdfrwt>
<totfact> 0.29891708E+04</totfact>
</mgrwt>
</event>
<event>
 6      1 +2.5168323e+02 1.85845900e+02 7.54677100e-03 1.15942100e-01
       21 -1    0    0  504  502 +0.0000000000e+00 +0.0000000000e+00 +5.1499588350e+01 5.1499588350e+01 0.0000000000e+00 0.0000e+00 -1.0000e+00
       21 -1    0    0  501  503 -0.0000000000e+00 -0.0000000000e+00 -2.1717948364e+03 2.1717948364e+03 0.0000000000e+00 0.0000e+00 -1.0000e+00
        6  1    1    2  501    0 +2.8604752054e+00 +2.9568476192e+01 -9.8121757912e+02 9.9679456995e+02 1.7300000000e+02 0.0000e+00 -1.0000e+00
       -6  1    1    2    0  502 +2.3604419040e+01 -7.2697560677e+01 -1.6578503116e+02 2.5150701876e+02 1.7300000000e+02 0.0000e+00 -1.0000e+00
       21  1    1    2  504  505 -2.1037090246e+01 +1.7669531400e+01 -6.7754232332e+02 6.7809908671e+02 0.0000000000e+00 0.0000e+00 -1.0000e+00
       21  1    1    2  505  503 -5.4278039995e+00 +2.5459553084e+01 -2.9575031441e+02 2.9689374930e+02 0.0000000000e+00 0.0000e+00 -1.0000e+00
<mgrwt>
<rscale>  4 0.18584594E+03</rscale>
<asrwt>0</asrwt>
<pdfrwt beam="1">  1       21 0.79230153E-02 0.18584594E+03</pdfrwt>
<pdfrwt beam="2">  1       21 0.33412221E+00 0.18584594E+03</pdfrwt>
<totfact> 0.26687307E+03</totfact>
</mgrwt>
</event>
<event>
 6      1 +2.5168323e+02 1.90062400e+02 7.54677100e-03 1.12989000e-01
       21 -1    0    0  505  502 +0.0000000000e+00 +0.0000000000e+00 +1.6500675049e+02 1.6500675049e+02 0.0000000000e+00 0.0000e+00 1.0000e+00
       21 -1    0    0  501  503 -0.0000000000e+00 -0.0000000000e+00 -1.2166201461e+03 1.2166201461e+03 0.0000000000e+00 0.0000e+00 -1.0000e+00
        6  1    1    2  501    0 +1.4335772818e+02 +2.0528017149e+01 -1.3843087962e+02 2.6469783934e+02 1.7300000000e+02 0.0000e+00 1.0000e+00
       -6  1    1    2    0  502 -3.1531753455e+01 +6.9063286152e+01 -4.2393981464e+00 1.8897344117e+02 1.7300000000e+02 0.0000e+00 -1.0000e+00
       21  1    1    2  504  503 -1.2571129396e+02 -1.0639117374e+02 -7.8179308746e+02 7.9895108917e+02 0.0000000000e+00 0.0000e+00 -1.0000e+00
       21  1    1    2  505  504 +1.3885319234e+01 +1.6799870438e+01 -1.2715003043e+02 1.2900452696e+02 0.0000000000e+00 0.0000e+00 -1.0000e+00
<mgrwt>
<rscale>  4 0.19006238E+03</rscale>
<asrwt>0</asrwt>
<pdfrwt beam="1">  1       21 0.25385653E-01 0.19006238E+03</pdfrwt>
<pdfrwt beam="2">  1       21 0.18717233E+00 0.19006238E+03</pdfrwt>
<totfact> 0.24016012E+03</totfact>
</mgrwt>
</event>
<event>
 6      1 +2.5168323e+02 1.81850700e+02 7.54677100e-03 1.06249800e-01
       21 -1    0    0  504  502 +0.0000000000e+00 +0.0000000000e+00 +5.7998021462e+02 5.7998021462e+02 0.0000000000e+00 0.0000e+00 1.0000e+00
       21 -1    0    0  501  503 -0.0000000000e+00 -0.0000000000e+00 -4.9732264070e+02 4.9732264070e+02 0.0000000000e+00 0.0000e+00 1.0000e+00
        6  1    1    2  501    0 +2.8469340204e+01 +3.1158806337e+01 -3.1749078281e+02 3.6402029025e+02 1.7300000000e+02 0.0000e+00 1.0000e+00
       -6  1    1    2    0  505 -2.0927999217e+02 +2.5983891717e+01 +5.5907826852e+01 2.7843843638e+02 1.7300000000e+02 0.0000e+00 1.0000e+00
       21  1    1    2  504  503 +1.5497872771e+02 +2.6282397159e+01 +2.9580946462e+02 3.3498120813e+02 0.0000000000e+00 0.0000e+00 1.0000e+00
       21  1    1    2  505  502 +2.5831924255e+01 -8.3425095213e+01 +4.8431065248e+01 9.9862920561e+01 0.0000000000e+00 0.0000e+00 1.0000e+00
<mgrwt>
<rscale>  4 0.18185072E+03</rscale>
<asrwt>0</asrwt>
<pdfrwt beam="1">  1       21 0.89227726E-01 0.18185072E+03</pdfrwt>
<pdfrwt beam="2">  1       21 0.76511175E-01 0.18185072E+03</pdfrwt>
<totfact> 0.16465100E+03</totfact>
</mgrwt>
</event>
<event>
 6      1 +2.5168323e+02 1.78241000e+02 7.54677100e-03 1.11910500e-01
       21 -1    0    0  501  502 +0.0000000000e+00 +0.0000000000e+00 +6.2018779629e+02 6.2018779629e+02 0.0000000000e+00 0.0000e+00 -1.0000e+00
       21 -1    0    0  505  503 -0.0000000000e+00 -0.0000000000e+00 -2.3537993194e+02 2.3537993194e+02 0.0000000000e+00 0.0000e+00 -1.0000e+00
        6  1    1    2  501    0 +1.0424365483e+01 -2.4420556478e+01 +1.6121760846e+02 2.3796039219e+02 1.7300000000e+02 0.0000e+00 1.0000e+00
       -6  1    1    2    0  504 -3.3440391068e+01 +4.0751761780e+01 +3.5126818579e+02 3.9509151369e+02 1.7300000000e+02 0.0000e+00 -1.0000e+00
       21  1    1    2  504  503 -6.0416460666e+00 +7.2232736933e+01 -1.0326018725e+02 1.2616154740e+02 0.0000000000e+00 0.0000e+00 -1.0000e+00
       21  1    1    2  505  502 +2.9057671652e+01 -8.8563942235e+01 -2.4417742647e+01 9.6354274955e+01 0.0000000000e+00 0.0000e+00 -1.0000e+00
<mgrwt>
<rscale>  4 0.17824103E+03</rscale>
<asrwt>0</asrwt>
<pdfrwt beam="1">  1       21 0.95413507E-01 0.17824103E+03</pdfrwt>
<pdfrwt beam="2">  1       21 0.36212297E-01 0.17824103E+03</pdfrwt>
<totfact> 0.68180732E+03</totfact>
</mgrwt>
</event>
<event>
 6      1 +2.5168323e+02 2.75355700e+02 7.54677100e-03 1.16820100e-01
       21 -1    0    0  505  502 +0.0000000000e+00 +0.0000000000e+00 +2.6140192189e+02 2.6140192189e+02 0.0000000000e+00 0.0000e+00 1.0000e+00
       21 -1    0    0  504  503 -0.0000000000e+00 -0.0000000000e+00 -7.9290592782e+02 7.9290592782e+02 0.0000000000e+00 0.0000e+00 -1.0000e+00
        6  1    1    2  501    0 -1.9914879259e+02 -1.1115105971e+02 -3.9961227706e+02 4.9156258161e+02 1.7300000000e+02 0.0000e+00 -1.0000e+00
       -6  1    1    2    0  503 +2.0849438221e+02 +8.2130335893e+01 -1.2662052063e+02 3.1012425854e+02 1.7300000000e+02 0.0000e+00 -1.0000e+00
       21  1    1    2  504  502 +2.8937411031e+01 +1.6421736304e+01 -1.2339963222e+02 1.2780655857e+02 0.0000000000e+00 0.0000e+00 1.0000e+00
       21  1    1    2  505  501 -3.8283000652e+01 +1.2598987512e+01 +1.1812842398e+02 1.2481445099e+02 0.0000000000e+00 0.0000e+00 1.0000e+00
<mgrwt>
<rscale>  4 0.27535572E+03</rscale>
<asrwt>0</asrwt>
<pdfrwt beam="1">  1       21 0.40215681E-01 0.27535572E+03</pdfrwt>
<pdfrwt beam="2">  1       21 0.12198552E+00 0.27535572E+03</pdfrwt>
<totfact> 0.28394103E+03</totfact>
</mgrwt>
</event>
<event>
 6      1 +2.5168323e+02 1.98869700e+02 7.54677100e-03 1.16820100e-01
       21 -1    0    0  505  502 +0.0000000000e+00 +0.0000000000e+00 +1.0325599997e+03 1.0325599997e+03 0.0000000000e+00 0.0000e+00 -1.0000e+00
       21 -1    0    0  504  503 -0.0000000000e+00 -0.0000000000e+00 -2.1855520346e+02 2.1855520346e+02 0.0000000000e+00 0.0000e+00 -1.0000e+00
        6  1    1    2  501    0 +3.7896073938e+01 +7.5790161108e+01 +1.6575482754e+02 2.5413367308e+02 1.7300000000e+02 0.0000e+00 -1.0000e+00
       -6  1    1    2    0  503 -9.7175285458e+01 -1.1600828206e+02 +3.2631388388e+02 3.9913745555e+02 1.7300000000e+02 0.0000e+00 -1.0000e+00
       21  1    1    2  504  502 +1.3843121511e+01 -6.0464864421e+01 -1.2388286673e+02 1.3854456508e+02 0.0000000000e+00 0.0000e+00 -1.0000e+00
       21  1    1    2  505  501 +4.5436090008e+01 +1.0068298537e+02 +4.4581895160e+02 4.5929950950e+02 0.0000000000e+00 0.0000e+00 -1.0000e+00
<mgrwt>
<rscale>  4 0.19886971E+03</rscale>
<asrwt>0</asrwt>
<pdfrwt beam="1">  1       21 0.15885538E+00 0.19886971E+03</pdfrwt>
<pdfrwt beam="2">  1       21 0.33623878E-01 0.19886971E+03</pdfrwt>
<totfact> 0.21733340E+03</totfact>
</mgrwt>
</event>
<event>
 6      1 +2.5168323e+02 1.90238300e+02 7.54677100e-03 1.17132900e-01
       21 -1    0    0  503  502 +0.0000000000e+00 +0.0000000000e+00 +4.8226501980e+02 4.8226501980e+02 0.0000000000e+00 0.0000e+00 -1.0000e+00
       21 -1    0    0  504  503 -0.0000000000e+00 -0.0000000000e+00 -5.1344864189e+02 5.1344864189e+02 0.0000000000e+00 0.0000e+00 1.0000e+00
        6  1    1    2  501    0 -8.2745327146e+01 -9.1879003956e+00 -2.5242949165e+02 3.1714484851e+02 1.7300000000e+02 0.0000e+00 -1.0000e+00
       -6  1    1    2    0  505 +1.7209045322e+01 +1.2496211691e+02 -1.3937135603e+02 2.5547026595e+02 1.7300000000e+02 0.0000e+00 1.0000e+00
       21  1    1    2  504  501 +2.8734727328e+01 -2.6662180926e+01 -9.7457995143e+00 4.0392289543e+01 0.0000000000e+00 0.0000e+00 -1.0000e+00
       21  1    1    2  505  502 +3.6801554496e+01 -8.9112035591e+01 +3.7036302511e+02 3.8270625769e+02 0.0000000000e+00 0.0000e+00 -1.0000e+00
<mgrwt>
<rscale>  4 0.19023832E+03</rscale>
<asrwt>0</asrwt>
<pdfrwt beam="1">  1       21 0.74194618E-01 0.19023832E+03</pdfrwt>
<pdfrwt beam="2">  1       21 0.78992099E-01 0.19023832E+03</pdfrwt>
<totfact> 0.23100801E+03</totfact>
</mgrwt>
</event>
<event>
 6      1 +2.5168323e+02 2.48061400e+02 7.54677100e-03 1.11471900e-01
       21 -1    0    0  503  502 +0.0000000000e+00 +0.0000000000e+00 +7.7374340468e+02 7.7374340468e+02 0.0000000000e+00 0.0000e+00 -1.0000e+00
       21 -1    0    0  501  503 -0.0000000000e+00 -0.0000000000e+00 -1.0384295668e+03 1.0384295668e+03 0.0000000000e+00 0.0000e+00 1.0000e+00
        6  1    1    2  501    0 +5.5584189273e+01 -1.6897657546e+02 -9.5931288813e+02 9.9088490879e+02 1.7300000000e+02 0.0000e+00 1.0000e+00
       -6  1    1    2    0  505 +8.3105760842e+01 +2.0904146984e+02 +4.8204215361e+02 5.5937334710e+02 1.7300000000e+02 0.0000e+00 -1.0000e+00
       21  1    1    2  504  502 -9.5677820165e+01 -7.0542424507e+00 +1.5888916019e+02 1.8560649998e+02 0.0000000000e+00 0.0000e+00 -1.0000e+00
       21  1    1    2  505  504 -4.3012129950e+01 -3.3010651933e+01 +5.3695412260e+01 7.6308215558e+01 0.0000000000e+00 0.0000e+00 -1.0000e+00
<mgrwt>
<rscale>  4 0.24806143E+03</rscale>
<asrwt>0</asrwt>
<pdfrwt beam="1">  1       21 0.11903745E+00 0.24806143E+03</pdfrwt>
<pdfrwt beam="2">  1       21 0.15975839E+00 0.24806143E+03</pdfrwt>
<totfact> 0.12735839E+02</totfact>
</mgrwt>
</event>
<event>
 6      1 +2.5168323e+02 1.76431000e+02 7.54677100e-03 1.03924000e-01
       21 -1    0    0  504  502 +0.0000000000e+00 +0.0000000000e+00 +5.2373255323e+02 5.2373255323e+02 0.0000000000e+00 0.0000e+00 -1.0000e+00
       21 -1    0    0  501  503 -0.0000000000e+00 -0.0000000000e+00 -2.2274094703e+02 2.2274094703e+02 0.0000000000e+00 0.0000e+00 -1.0000e+00
        6  1    1    2  501    0 -5.4029338374e+01 -1.6647911058e+01 -6.0803958706e+01 1.9189175006e+02 1.7300000000e+02 0.0000e+00 -1.0000e+00
       -6  1    1    2    0  505 +1.0378764945e+01 -2.1176529884e+01 -1.1164955735e+01 1.7495662439e+02 1.7300000000e+02 0.0000e+00 -1.0000e+00
       21  1    1    2  504  503 +4.8485220269e-02 +2.3063162434e+01 +8.8081287134e+01 9.1050672460e+01 0.0000000000e+00 0.0000e+00 -1.0000e+00
       21  1    1    2  505  502 +4.3602088209e+01 +1.4761278508e+01 +2.8487923351e+02 2.8857445335e+02 0.0000000000e+00 0.0000e+00 -1.0000e+00
<mgrwt>
<rscale>  4 0.17643098E+03</rscale>
<asrwt>0</asrwt>
<pdfrwt beam="1">  1       21 0.80574238E-01 0.17643098E+03</pdfrwt>
<pdfrwt beam="2">  1       21 0.34267838E-01 0.17643098E+03</pdfrwt>
<totfact> 0.11230189E+04</totfact>
</mgrwt>
</event>
<event>
 6      1 +2.5168323e+02 1.91773700e+02 7.54677100e-03 1.17132900e-01
       21 -1    0    0  505  502 +0.0000000000e+00 +0.0000000000e+00 +1.4710214132e+02 1.4710214132e+02 0.0000000000e+00 0.0000e+00 1.0000e+00
       21 -1    0    0  504  503 -0.0000000000e+00 -0.0000000000e+00 -8.3312325905e+02 8.3312325905e+02 0.0000000000e+00 0.0000e+00 1.0000e+00
        6  1    1    2  501    0 +9.9373030692e+01 -6.6158325359e+01 -3.9610949050e+02 4.4842351823e+02 1.7300000000e+02 0.0000e+00 1.0000e+00
       -6  1    1    2    0  502 -4.1468012873e+01 +6.0526096084e+00 -2.0029127604e+02 2.6795862635e+02 1.7300000000e+02 0.0000e+00 1.0000e+00
       21  1    1    2  504  501 -9.1080710121e-01 +2.0408737838e+01 -1.6214335164e+02 1.6342525090e+02 0.0000000000e+00 0.0000e+00 -1.0000e+00
       21  1    1    2  505  503 -5.6994210718e+01 +3.9696977912e+01 +7.2523000459e+01 1.0041800489e+02 0.0000000000e+00 0.0000e+00 1.0000e+00
<mgrwt>
<rscale>  4 0.19177372E+03</rscale>
<asrwt>0</asrwt>
<pdfrwt beam="1">  1       21 0.22631098E-01 0.19177372E+03</pdfrwt>
<pdfrwt beam="2">  1       21 0.12817281E+00 0.19177372E+03</pdfrwt>
<totfact> 0.82030542E+03</totfact>
</mgrwt>
</event>
<event>
 6      1 +2.5168323e+02 2.63482700e+02 7.54677100e-03 1.12989000e-01
       21 -1    0    0  503  502 +0.0000000000e+00 +0.0000000000e+00 +1.3087411289e+03 1.3087411289e+03 0.0000000000e+00 0.0000e+00 -1.0000e+00
       21 -1    0    0  505  503 -0.0000000000e+00 -0.0000000000e+00 -3.1882012589e+02 3.1882012589e+02 0.0000000000e+00 0.0000e+00 -1.0000e+00
        6  1    1    2  501    0 -1.1706557899e+02 +1.4799763595e+02 +2.0103221133e+02 3.2550053767e+02 1.7300000000e+02 0.0000e+00 -1.0000e+00
       -6  1    1    2    0  502 +1.8142447548e+02 -9.5719342571e+01 +1.0199352227e+03 1.0546439642e+03 1.7300000000e+02 0.0000e+00 -1.0000e+00
       21  1    1    2  504  501 -2.9907827678e+01 -5.6531680560e+00 -7.4250469086e+01 8.0246922838e+01 0.0000000000e+00 0.0000e+00 -1.0000e+00
       21  1    1    2  505  504 -3.4451068816e+01 -4.6625125319e+01 -1.5679596184e+02 1.6716983012e+02 0.0000000000e+00 0.0000e+00 -1.0000e+00
<mgrwt>
<rscale>  4 0.26348271E+03</rscale>
<asrwt>0</asrwt>
<pdfrwt beam="1">  1       21 0.20134479E+00 0.26348271E+03</pdfrwt>
<pdfrwt beam="2">  1       21 0.49049251E-01 0.26348271E+03</pdfrwt>
<totfact> 0.48458275E+02</totfact>
</mgrwt>
</event>
<event>
 6      1 +2.5168323e+02 3.29474100e+02 7.54677100e-03 1.12989000e-01
       21 -1    0    0  505  502 +0.0000000000e+00 +0.0000000000e+00 +7.0563360204e+02 7.0563360204e+02 0.0000000000e+00 0.0000e+00 -1.0000e+00
       21 -1    0    0  501  503 -0.0000000000e+00 -0.0000000000e+00 -6.3982167589e+02 6.3982167589e+02 0.0000000000e+00 0.0000e+00 1.0000e+00
        6  1    1    2  501    0 -6.2437294167e+01 +7.6242388188e+01 +1.0748371178e+02 2.2625884681e+02 1.7300000000e+02 0.0000e+00 1.0000e+00
       -6  1    1    2    0  502 +1.6549835038e+01 +2.5294169903e+02 +4.2108566615e+02 5.2105233747e+02 1.7300000000e+02 0.0000e+00 -1.0000e+00
       21  1    1    2  504  503 +5.4785037144e+01 -1.1125910502e+02 -3.0415935101e+02 3.2847054594e+02 0.0000000000e+00 0.0000e+00 1.0000e+00
       21  1    1    2  505  504 -8.8975780146e+00 -2.1792498220e+02 -1.5859810077e+02 2.6967354770e+02 0.0000000000e+00 0.0000e+00 1.0000e+00
<mgrwt>
<rscale>  4 0.28680297E+03</rscale>
<asrwt>0</asrwt>
<pdfrwt beam="1">  1       21 0.10855902E+00 0.32947409E+03</pdfrwt>
<pdfrwt beam="2">  1       21 0.98434103E-01 0.32947409E+03</pdfrwt>
<totfact> 0.51232268E+02</totfact>
</mgrwt>
</event>
<event>
 6      1 +2.5168323e+02 1.88133300e+02 7.54677100e-03 1.11671100e-01
       21 -1    0    0  503  502 +0.0000000000e+00 +0.0000000000e+00 +3.8860134377e+02 3.8860134377e+02 0.0000000000e+00 0.0000e+00 1.0000e+00
       21 -1    0    0  501  503 -0.0000000000e+00 -0.0000000000e+00 -1.9013148391e+02 1.9013148391e+02 0.0000000000e+00 0.0000e+00 -1.0000e+00
        6  1    1    2  501    0 -3.3091265543e+01 +7.1226584599e+01 -5.4438937000e+01 1.9763819487e+02 1.7300000000e+02 0.0000e+00 -1.0000e+00
       -6  1    1    2    0  504 +7.0223314293e+01 -3.0461537960e+01 +1.3299023204e+02 2.3124580209e+02 1.7300000000e+02 0.0000e+00 1.0000e+00
       21  1    1    2  504  505 -7.5612172619e+00 -5.5926525577e+01 +7.0703304157e+01 9.0464940658e+01 0.0000000000e+00 0.0000e+00 1.0000e+00
       21  1    1    2  505  502 -2.9570831487e+01 +1.5161478937e+01 +4.9215260653e+01 5.9383890067e+01 0.0000000000e+00 0.0000e+00 -1.0000e+00
<mgrwt>
<rscale>  4 0.18813329E+03</rscale>
<asrwt>0</asrwt>
<pdfrwt beam="1">  1       21 0.59784822E-01 0.18813329E+03</pdfrwt>
<pdfrwt beam="2">  1       21 0.29250998E-01 0.18813329E+03</pdfrwt>
<totfact> 0.29301490E+04</totfact>
</mgrwt>
</event>
<event>
 6      1 +2.5168323e+02 1.99804600e+02 7.54677100e-03 1.07064900e-01
       21 -1    0    0  505  502 +0.0000000000e+00 +0.0000000000e+00 +1.0396353316e+02 1.0396353316e+02 0.0000000000e+00 0.0000e+00 -1.0000e+00
       21 -1    0    0  504  503 -0.0000000000e+00 -0.0000000000e+00 -2.8653162732e+03 2.8653162732e+03 0.0000000000e+00 0.0000e+00 -1.0000e+00
        6  1    1    2  501    0 +8.4983844520e+00 -1.3323239465e+02 -3.3967121897e+02 4.0389185498e+02 1.7300000000e+02 0.0000e+00 -1.0000e+00
       -6  1    1    2    0  503 +1.0572032495e+02 +2.9560841280e+01 -2.0008223211e+03 2.0112855568e+03 1.7300000000e+02 0.0000e+00 1.0000e+00
       21  1    1    2  504  502 -1.9115802372e+02 +1.4623925531e+02 -3.9482324670e+02 4.6239886025e+02 0.0000000000e+00 0.0000e+00 -1.0000e+00
       21  1    1    2  505  501 +7.6939314320e+01 -4.2567701942e+01 -2.6035953226e+01 9.1703534267e+01 0.0000000000e+00 0.0000e+00 -1.0000e+00
<mgrwt>
<rscale>  4 0.19980459E+03</rscale>
<asrwt>0</asrwt>
<pdfrwt beam="1">  1       21 0.15994390E-01 0.19980459E+03</pdfrwt>
<pdfrwt beam="2">  1       21 0.44081787E+00 0.19980459E+03</pdfrwt>
<totfact> 0.16477140E+02</totfact>
</mgrwt>
</event>
<event>
 6      1 +2.5168323e+02 2.40378400e+02 7.54677100e-03 1.12989000e-01
       21 -1    0    0  503  502 +0.0000000000e+00 +0.0000000000e+00 +6.1696129769e+02 6.1696129769e+02 0.0000000000e+00 0.0000e+00 -1.0000e+00
       21 -1    0    0  505  503 -0.0000000000e+00 -0.0000000000e+00 -2.5723813072e+03 2.5723813072e+03 0.0000000000e+00 0.0000e+00 -1.0000e+00
        6  1    1    2  501    0 +9.7655146791e+01 +5.0237198862e+01 +1.0053218996e+02 2.2824553678e+02 1.7300000000e+02 0.0000e+00 -1.0000e+00
       -6  1    1    2    0  502 -1.8351788859e+02 -8.4445436867e+01 +4.1139289913e+02 4.8988056166e+02 1.7300000000e+02 0.0000e+00 -1.0000e+00
       21  1    1    2  504  501 +5.7994514330e+01 -6.4970251391e+00 -5.2300538287e+02 5.2625108602e+02 0.0000000000e+00 0.0000e+00 -1.0000e+00
       21  1    1    2  505  504 +2.7868227471e+01 +4.0705263144e+01 -1.9443397158e+03 1.9449654205e+03 0.0000000000e+00 0.0000e+00 -1.0000e+00
<mgrwt>
<rscale>  4 0.24037840E+03</rscale>
<asrwt>0</asrwt>
<pdfrwt beam="1">  1       21 0.94917120E-01 0.24037840E+03</pdfrwt>
<pdfrwt beam="2">  1       21 0.39575098E+00 0.24037840E+03</pdfrwt>
<totfact> 0.78374514E+00</totfact>
</mgrwt>
</event>
<event>
 6      1 +2.5168323e+02 1.95798900e+02 7.54677100e-03 1.16820100e-01
       21 -1    0    0  501  502 +0.0000000000e+00 +0.0000000000e+00 +8.6333297579e+02 8.6333297579e+02 0.0000000000e+00 0.0000e+00 1.0000e+00
       21 -1    0    0  504  503 -0.0000000000e+00 -0.0000000000e+00 -6.5611263754e+02 6.5611263754e+02 0.0000000000e+00 0.0000e+00 -1.0000e+00
        6  1    1    2  501    0 -1.6185513199e+01 +4.1197704076e+01 +3.7451857746e+02 4.1491250466e+02 1.7300000000e+02 0.0000e+00 1.0000e+00
       -6  1    1    2    0  503 +3.9938432181e+01 -1.4974125230e+02 +3.7031942917e+02 4.3713041604e+02 1.7300000000e+02 0.0000e+00 1.0000e+00
       21  1    1    2  504  505 -2.8870983296e+00 +9.0478832313e+01 -5.9599466948e+02 6.0283032479e+02 0.0000000000e+00 0.0000e+00 -1.0000e+00
       21  1    1    2  505  502 -2.0865820653e+01 +1.8064715909e+01 +5.8377001091e+01 6.4572367842e+01 0.0000000000e+00 0.0000e+00 -1.0000e+00
<mgrwt>
<rscale>  4 0.19579885E+03</rscale>
<asrwt>0</asrwt>
<pdfrwt beam="1">  1       21 0.13282046E+00 0.19579885E+03</pdfrwt>
<pdfrwt beam="2">  1       21 0.10094041E+00 0.19579885E+03</pdfrwt>
<totfact> 0.32749389E+02</totfact>
</mgrwt>
</event>
<event>
 6      1 +2.5168323e+02 6.55564200e+02 7.54677100e-03 1.12068800e-01
       21 -1    0    0  504  502 +0.0000000000e+00 +0.0000000000e+00 +2.3960407935e+03 2.3960407935e+03 0.0000000000e+00 0.0000e+00 -1.0000e+00
       21 -1    0    0  502  503 -0.0000000000e+00 -0.0000000000e+00 -1.3004647382e+03 1.3004647382e+03 0.0000000000e+00 0.0000e+00 1.0000e+00
        6  1    1    2  501    0 -3.0647918516e+02 +1.0289796738e+02 +1.5558546747e+03 1.5984774792e+03 1.7300000000e+02 0.0000e+00 -1.0000e+00
       -6  1    1    2    0  505 -2.0078923785e+02 -7.4426280133e+01 +7.3066397567e+02 7.8080371064e+02 1.7300000000e+02 0.0000e+00 -1.0000e+00
       21  1    1    2  504  501 +4.5051372611e+02 -2.4248662187e+01 -7.6991328912e+02 8.9236600551e+02 0.0000000000e+00 0.0000e+00 1.0000e+00
       21  1    1    2  505  503 +5.6754696890e+01 -4.2230250615e+00 -4.2102930595e+02 4.2485833643e+02 0.0000000000e+00 0.0000e+00 1.0000e+00
<mgrwt>
<rscale>  4 0.65556419E+03</rscale>
<asrwt>0</asrwt>
<pdfrwt beam="1">  1       21 0.36862166E+00 0.65556419E+03</pdfrwt>
<pdfrwt beam="2">  1       21 0.20007150E+00 0.65556419E+03</pdfrwt>
<totfact> 0.10551385E+00</totfact>
</mgrwt>
</event>
<event>
 6      1 +2.5168323e+02 2.51703700e+02 7.54677100e-03 1.11910500e-01
       21 -1    0    0  501  502 +0.0000000000e+00 +0.0000000000e+00 +1.9241987636e+02 1.9241987636e+02 0.0000000000e+00 0.0000e+00 1.0000e+00
       21 -1    0    0  505  503 -0.0000000000e+00 -0.0000000000e+00 -5.3228327541e+02 5.3228327541e+02 0.0000000000e+00 0.0000e+00 1.0000e+00
        6  1    1    2  501    0 +1.5939755189e+01 +1.9827687717e+02 -1.9154181640e+01 2.6431738212e+02 1.7300000000e+02 0.0000e+00 1.0000e+00
       -6  1    1    2    0  504 -3.3840291692e+01 -1.5258476631e+02 -1.8675357401e+02 2.9871922211e+02 1.7300000000e+02 0.0000e+00 1.0000e+00
       21  1    1    2  504  503 +2.5118443077e+01 +1.2062491583e+00 -1.0052334672e+02 1.0362111008e+02 0.0000000000e+00 0.0000e+00 -1.0000e+00
       21  1    1    2  505  502 -7.2179065749e+00 -4.6898360015e+01 -3.3432296687e+01 5.8045437454e+01 0.0000000000e+00 0.0000e+00 1.0000e+00
<mgrwt>
<rscale>  4 0.25170367E+03</rscale>
<asrwt>0</asrwt>
<pdfrwt beam="1">  1       21 0.29603058E-01 0.25170367E+03</pdfrwt>
<pdfrwt beam="2">  1       21 0.81889734E-01 0.25170367E+03</pdfrwt>
<totfact> 0.13776831E+04</totfact>
</mgrwt>
</event>
<event>
 6      1 +2.5168323e+02 3.10381100e+02 7.54677100e-03 1.03924000e-01
       21 -1    0    0  501  502 +0.0000000000e+00 +0.0000000000e+00 +1.6566577143e+02 1.6566577143e+02 0.0000000000e+00 0.0000e+00 -1.0000e+00
       21 -1    0    0  504  503 -0.0000000000e+00 -0.0000000000e+00 -1.0931772912e+03 1.0931772912e+03 0.0000000000e+00 0.0000e+00 1.0000e+00
        6  1    1    2  501    0 -2.8022043460e+02 -7.9642333421e+01 -7.4498510149e+02 8.1841199569e+02 1.7300000000e+02 0.0000e+00 1.0000e+00
       -6  1    1    2    0  505 +1.4675321739e+02 +9.4583823156e+01 -5.7366623859e+01 2.5239361313e+02 1.7300000000e+02 0.0000e+00 -1.0000e+00
       21  1    1    2  504  502 +2.0060143755e+01 +1.2433541927e+01 -1.8925367881e+01 3.0251807909e+01 0.0000000000e+00 0.0000e+00 1.0000e+00
       21  1    1    2  505  503 +1.1340707346e+02 -2.7375031662e+01 -1.0623442655e+02 1.5778564590e+02 0.0000000000e+00 0.0000e+00 1.0000e+00
<mgrwt>
<rscale>  4 0.31038115E+03</rscale>
<asrwt>0</asrwt>
<pdfrwt beam="1">  1       21 0.25487041E-01 0.31038115E+03</pdfrwt>
<pdfrwt beam="2">  1       21 0.16818113E+00 0.31038115E+03</pdfrwt>
<totfact> 0.29410260E+03</totfact>
</mgrwt>
</event>
<event>
 6      1 +2.5168323e+02 1.82151200e+02 7.54677100e-03 1.15942100e-01
       21 -1    0    0  504  502 +0.0000000000e+00 +0.0000000000e+00 +1.6231420045e+02 1.6231420045e+02 0.0000000000e+00 0.0000e+00 -1.0000e+00
       21 -1    0    0  501  503 -0.0000000000e+00 -0.0000000000e+00 -7.1100088703e+02 7.1100088703e+02 0.0000000000e+00 0.0000e+00 1.0000e+00
        6  1    1    2  501    0 +3.0024892921e+01 -3.0163910830e+01 -6.9356045429e+01 1.9118215594e+02 1.7300000000e+02 0.0000e+00 -1.0000e+00
       -6  1    1    2    0  502 +9.0482586962e+00 +7.7599230914e+01 -1.9959735253e+01 1.9086881006e+02 1.7300000000e+02 0.0000e+00 -1.0000e+00
       21  1    1    2  504  505 -7.8686700520e+01 -8.5534476938e+01 -2.6706799364e+02 2.9126114882e+02 0.0000000000e+00 0.0000e+00 1.0000e+00
       21  1    1    2  505  503 +3.9613548903e+01 +3.8099156854e+01 -1.9230291226e+02 2.0000297266e+02 0.0000000000e+00 0.0000e+00 1.0000e+00
<mgrwt>
<rscale>  4 0.18215118E+03</rscale>
<asrwt>0</asrwt>
<pdfrwt beam="1">  1       21 0.24971416E-01 0.18215118E+03</pdfrwt>
<pdfrwt beam="2">  1       21 0.10938475E+00 0.18215118E+03</pdfrwt>
<totfact> 0.10125223E+04</totfact>
</mgrwt>
</event>
<event>
 6      1 +2.5168323e+02 2.52308400e+02 7.54677100e-03 1.15942100e-01
       21 -1    0    0  505  502 +0.0000000000e+00 +0.0000000000e+00 +4.5463639597e+02 4.5463639597e+02 0.0000000000e+00 0.0000e+00 1.0000e+00
       21 -1    0    0  501  503 -0.0000000000e+00 -0.0000000000e+00 -5.1191337952e+02 5.1191337952e+02 0.0000000000e+00 0.0000e+00 -1.0000e+00
        6  1    1    2  501    0 +1.7186731349e+02 +8.3984298397e+01 +3.5560168659e+02 4.3928725833e+02 1.7300000000e+02 0.0000e+00 1.0000e+00
       -6  1    1    2    0  504 -1.0353317511e+02 -8.4820915664e+01 -2.4992148240e+02 3.3211963725e+02 1.7300000000e+02 0.0000e+00 -1.0000e+00
       21  1    1    2  504  502 -2.4165243250e+01 -3.7402179325e+01 -4.3933322550e+01 6.2554127201e+01 0.0000000000e+00 0.0000e+00 1.0000e+00
       21  1    1    2  505  503 -4.4168895132e+01 +3.8238796593e+01 -1.1902386519e+02 1.3258875271e+02 0.0000000000e+00 0.0000e+00 -1.0000e+00
<mgrwt>
<rscale>  4 0.25230839E+03</rscale>
<asrwt>0</asrwt>
<pdfrwt beam="1">  1       21 0.69944061E-01 0.25230839E+03</pdfrwt>
<pdfrwt beam="2">  1       21 0.78755905E-01 0.25230839E+03</pdfrwt>
<totfact> 0.25247978E+03</totfact>
</mgrwt>
</event>
<event>
 6      1 +2.5168323e+02 1.73665700e+02 7.54677100e-03 1.16820100e-01
       21 -1    0    0  505  502 +0.0000000000e+00 +0.0000000000e+00 +4.6485324601e+02 4.6485324601e+02 0.0000000000e+00 0.0000e+00 -1.0000e+00
       21 -1    0    0  504  503 -0.0000000000e+00 -0.0000000000e+00 -6.5166480264e+02 6.5166480264e+02 0.0000000000e+00 0.0000e+00 -1.0000e+00
        6  1    1    2  501    0 -1.9448045383e+01 +1.0981201429e+01 +4.2791023387e+00 1.7448817717e+02 1.7300000000e+02 0.0000e+00 -1.0000e+00
       -6  1    1    2    0  503 +5.1496773059e+01 +7.7792714637e+01 -3.8913963156e+02 4.3596132505e+02 1.7300000000e+02 0.0000e+00 -1.0000e+00
       21  1    1    2  504  502 -5.2606260507e+01 -8.4042582103e+01 -1.3768666893e+02 1.6967083736e+02 0.0000000000e+00 0.0000e+00 1.0000e+00
       21  1    1    2  505  501 +2.0557532831e+01 -4.7313339625e+00 +3.3573564152e+02 3.3639770907e+02 0.0000000000e+00 0.0000e+00 -1.0000e+00
<mgrwt>
<rscale>  4 0.17366571E+03</rscale>
<asrwt>0</asrwt>
<pdfrwt beam="1">  1       21 0.71515885E-01 0.17366571E+03</pdfrwt>
<pdfrwt beam="2">  1       21 0.10025612E+00 0.17366571E+03</pdfrwt>
<totfact> 0.14695765E+03</totfact>
</mgrwt>
</event>
<event>
 6      1 +2.5168323e+02 1.78184600e+02 7.54677100e-03 1.16820100e-01
       21 -1    0    0  505  502 +0.0000000000e+00 +0.0000000000e+00 +1.4045697510e+02 1.4045697510e+02 0.0000000000e+00 0.0000e+00 1.0000e+00
       21 -1    0    0  501  503 -0.0000000000e+00 -0.0000000000e+00 -1.1699584302e+03 1.1699584302e+03 0.0000000000e+00 0.0000e+00 1.0000e+00
        6  1    1    2  501    0 -4.9714227875e+01 -2.4317812546e+00 -6.7740183541e+02 7.0091345017e+02 1.7300000000e+02 0.0000e+00 1.0000e+00
       -6  1    1    2    0  502 +4.8446637380e+01 +9.5955195608e+01 -3.0785572628e+01 2.0598841647e+02 1.7300000000e+02 0.0000e+00 1.0000e+00
       21  1    1    2  504  503 +1.0408979219e+01 +2.2739949533e+01 -2.7797674531e+02 2.7909948600e+02 0.0000000000e+00 0.0000e+00 1.0000e+00
       21  1    1    2  505  504 -9.1413887243e+00 -1.1626336389e+02 -4.3337301712e+01 1.2441405262e+02 0.0000000000e+00 0.0000e+00 1.0000e+00
<mgrwt>
<rscale>  4 0.17818460E+03</rscale>
<asrwt>0</asrwt>
<pdfrwt beam="1">  1       21 0.21608765E-01 0.17818460E+03</pdfrwt>
<pdfrwt beam="2">  1       21 0.17999361E+00 0.17818460E+03</pdfrwt>
<totfact> 0.36840084E+03</totfact>
</mgrwt>
</event>
<event>
 6      1 +2.5168323e+02 2.49064900e+02 7.54677100e-03 1.03924000e-01
       21 -1    0    0  504  502 +0.0000000000e+00 +0.0000000000e+00 +1.7954703101e+03 1.7954703101e+03 0.0000000000e+00 0.0000e+00 -1.0000e+00
       21 -1    0    0  501  503 -0.0000000000e+00 -0.0000000000e+00 -1.5893546478e+02 1.5893546478e+02 0.0000000000e+00 0.0000e+00 1.0000e+00
        6  1    1    2  501    0 +4.3899502029e+01 +1.0658521761e+01 +1.0792648271e+00 1.7880418110e+02 1.7300000000e+02 0.0000e+00 1.0000e+00
       -6  1    1    2    0  505 +7.3723555656e+01 +1.3616019225e+02 +1.5639604093e+02 2.7993478210e+02 1.7300000000e+02 0.0000e+00 1.0000e+00
       21  1    1    2  504  503 -2.1342181734e+01 -1.6538029160e+01 +4.4942525366e+01 5.2429244854e+01 0.0000000000e+00 0.0000e+00 -1.0000e+00
       21  1    1    2  505  502 -9.6280875951e+01 -1.3028068485e+02 +1.4341170142e+03 1.4432375668e+03 0.0000000000e+00 0.0000e+00 -1.0000e+00
<mgrwt>
<rscale>  4 0.22915808E+03</rscale>
<asrwt>0</asrwt>
<pdfrwt beam="1">  1       21 0.27622619E+00 0.24906494E+03</pdfrwt>
<pdfrwt beam="2">  1       21 0.24451611E-01 0.24906494E+03</pdfrwt>
<totfact> 0.69156860E+02</totfact>
</mgrwt>
</event>
<event>
 6      1 +2.5168323e+02 1.75776700e+02 7.54677100e-03 1.16820100e-01
       21 -1    0    0  504  502 +0.0000000000e+00 +0.0000000000e+00 +3.8662278361e+02 3.8662278361e+02 0.0000000000e+00 0.0000e+00 -1.0000e+00
       21 -1    0    0  501  503 -0.0000000000e+00 -0.0000000000e+00 -4.7851590307e+02 4.7851590307e+02 0.0000000000e+00 0.0000e+00 1.0000e+00
        6  1    1    2  501    0 +1.2854211966e+01 -5.8603554130e+01 -8.2153145062e+01 2.0069316522e+02 1.7300000000e+02 0.0000e+00 -1.0000e+00
       -6  1    1    2    0  505 -1.4753231324e+01 -5.7159757326e+00 +1.7582098182e+02 2.4716866278e+02 1.7300000000e+02 0.0000e+00 -1.0000e+00
       21  1    1    2  504  503 +1.2496489789e+01 +3.6948358623e+01 -2.9826964290e+02 3.0080911445e+02 0.0000000000e+00 0.0000e+00 1.0000e+00
       21  1    1    2  505  502 -1.0597470431e+01 +2.7371171240e+01 +1.1270868668e+02 1.1646774423e+02 0.0000000000e+00 0.0000e+00 -1.0000e+00
<mgrwt>
<rscale>  4 0.17577666E+03</rscale>
<asrwt>0</asrwt>
<pdfrwt beam="1">  1       21 0.59480428E-01 0.17577666E+03</pdfrwt>
<pdfrwt beam="2">  1       21 0.73617831E-01 0.17577666E+03</pdfrwt>
<totfact> 0.44359623E+03</totfact>
</mgrwt>
</event>
<event>
 6      1 +2.5168323e+02 2.13319800e+02 7.54677100e-03 1.15942100e-01
       21 -1    0    0  504  502 +0.0000000000e+00 +0.0000000000e+00 +4.9624307813e+02 4.9624307813e+02 0.0000000000e+00 0.0000e+00 -1.0000e+00
       21 -1    0    0  501  503 -0.0000000000e+00 -0.0000000000e+00 -4.3000434006e+02 4.3000434006e+02 0.0000000000e+00 0.0000e+00 -1.0000e+00
        6  1    1    2  501    0 +8.2799330143e+01 -8.5126879380e+01 +5.9538780309e+01 2.1811964842e+02 1.7300000000e+02 0.0000e+00 -1.0000e+00
       -6  1    1    2    0  502 -1.0133724906e+02 +7.7692846187e+01 +3.1815186651e+02 3.8399873250e+02 1.7300000000e+02 0.0000e+00 -1.0000e+00
       21  1    1    2  504  505 -2.7632328355e+01 -8.2850920120e+00 -4.6470239486e+01 5.4696174252e+01 0.0000000000e+00 0.0000e+00 -1.0000e+00
       21  1    1    2  505  503 +4.6170247268e+01 +1.5719125205e+01 -2.6498166927e+02 2.6943286303e+02 0.0000000000e+00 0.0000e+00 -1.0000e+00
<mgrwt>
<rscale>  4 0.21331977E+03</rscale>
<asrwt>0</asrwt>
<pdfrwt beam="1">  1       21 0.76345089E-01 0.21331977E+03</pdfrwt>
<pdfrwt beam="2">  1       21 0.66154514E-01 0.21331977E+03</pdfrwt>
<totfact> 0.31508046E+03</totfact>
</mgrwt>
</event>
<event>
 6      1 +2.5168323e+02 1.79099300e+02 7.54677100e-03 1.05854100e-01
       21 -1    0    0  505  502 +0.0000000000e+00 +0.0000000000e+00 +2.3667435552e+02 2.3667435552e+02 0.0000000000e+00 0.0000e+00 1.0000e+00
       21 -1    0    0  501  503 -0.0000000000e+00 -0.0000000000e+00 -2.5826868026e+02 2.5826868026e+02 0.0000000000e+00 0.0000e+00 -1.0000e+00
        6  1    1    2  501    0 -3.7600148221e+01 -9.5718118066e+00 -1.3251034519e+02 2.2134448787e+02 1.7300000000e+02 0.0000e+00 -1.0000e+00
       -6  1    1    2    0  502 +5.1430003798e+01 +3.9998711005e+01 +1.2316457908e+02 2.2213386890e+02 1.7300000000e+02 0.0000e+00 -1.0000e+00
       21  1    1    2  504  503 +5.5599663270e+00 -1.9935282019e+01 -1.9319655692e+01 2.8312149173e+01 0.0000000000e+00 0.0000e+00 -1.0000e+00
       21  1    1    2  505  504 -1.9389821904e+01 -1.0491617180e+01 +7.0710970614e+00 2.3152529843e+01 0.0000000000e+00 0.0000e+00 1.0000e+00
<mgrwt>
<rscale>  4 0.17909927E+03</rscale>
<asrwt>0</asrwt>
<pdfrwt beam="1">  1       21 0.36411439E-01 0.17909927E+03</pdfrwt>
<pdfrwt beam="2">  1       21 0.39733643E-01 0.17909927E+03</pdfrwt>
<totfact> 0.44704171E+04</totfact>
</mgrwt>
</event>
<event>
 6      1 +2.5168323e+02 2.18905100e+02 7.54677100e-03 1.16820100e-01
       21 -1    0    0  505  502 +0.0000000000e+00 +0.0000000000e+00 +4.3066740764e+02 4.3066740764e+02 0.0000000000e+00 0.0000e+00 -1.0000e+00
       21 -1    0    0  501  503 -0.0000000000e+00 -0.0000000000e+00 -1.6866509955e+03 1.6866509955e+03 0.0000000000e+00 0.0000e+00 -1.0000e+00
        6  1    1    2  501    0 +1.1731192600e+02 -9.0240024658e+01 +1.0511816137e+02 2.5076717864e+02 1.7300000000e+02 0.0000e+00 -1.0000e+00
       -6  1    1    2    0  502 -1.0453098031e+02 +9.1991292762e+01 +4.8490674233e+01 2.2730919312e+02 1.7300000000e+02 0.0000e+00 -1.0000e+00
       21  1    1    2  504  503 +5.1686675989e+01 -1.7122429146e+01 -1.5143238711e+03 1.5153024374e+03 0.0000000000e+00 0.0000e+00 -1.0000e+00
       21  1    1    2  505  504 -6.4467621677e+01 +1.5371161042e+01 +1.0473144766e+02 1.2393959402e+02 0.0000000000e+00 0.0000e+00 -1.0000e+00
<mgrwt>
<rscale>  4 0.21890514E+03</rscale>
<asrwt>0</asrwt>
<pdfrwt beam="1">  1       21 0.66256524E-01 0.21890514E+03</pdfrwt>
<pdfrwt beam="2">  1       21 0.25948477E+00 0.21890514E+03</pdfrwt>
<totfact> 0.11774859E+02</totfact>
</mgrwt>
</event>
<event>
 6      1 +2.5168323e+02 1.95829400e+02 7.54677100e-03 1.04003000e-01
       21 -1    0    0  504  502 +0.0000000000e+00 +0.0000000000e+00 +1.9409120686e+02 1.9409120686e+02 0.0000000000e+00 0.0000e+00 1.0000e+00
       21 -1    0    0  505  503 -0.0000000000e+00 -0.0000000000e+00 -1.2017754318e+03 1.2017754318e+03 0.0000000000e+00 0.0000e+00 -1.0000e+00
        6  1    1    2  501    0 -1.2769615195e+01 +5.5445351557e+01 -1.7169505918e+01 1.8292359611e+02 1.7300000000e+02 0.0000e+00 1.0000e+00
       -6  1    1    2    0  503 +9.9943302304e+01 -1.4483305163e+02 -1.6960893697e+02 2.9943524846e+02 1.7300000000e+02 0.0000e+00 1.0000e+00
       21  1    1    2  504  501 -5.4617107909e+01 +1.0854145821e+02 -8.5441611474e+02 8.6301284680e+02 0.0000000000e+00 0.0000e+00 -1.0000e+00
       21  1    1    2  505  502 -3.2556579199e+01 -1.9153758146e+01 +3.3510332709e+01 5.0494947258e+01 0.0000000000e+00 0.0000e+00 1.0000e+00
<mgrwt>
<rscale>  4 0.19582942E+03</rscale>
<asrwt>0</asrwt>
<pdfrwt beam="1">  1       21 0.29860186E-01 0.19582942E+03</pdfrwt>
<pdfrwt beam="2">  1       21 0.18488853E+00 0.19582942E+03</pdfrwt>
<totfact> 0.18077210E+03</totfact>
</mgrwt>
</event>
<event>
 6      1 +2.5168323e+02 2.15018200e+02 7.54677100e-03 1.07064900e-01
       21 -1    0    0  505  502 +0.0000000000e+00 +0.0000000000e+00 +7.0443160615e+02 7.0443160615e+02 0.0000000000e+00 0.0000e+00 -1.0000e+00
       21 -1    0    0  501  503 -0.0000000000e+00 -0.0000000000e+00 -1.5070618148e+02 1.5070618148e+02 0.0000000000e+00 0.0000e+00 1.0000e+00
        6  1    1    2  501    0 +6.2727434436e+01 -1.5629988675e+02 +9.5394895982e+01 2.5960271919e+02 1.7300000000e+02 0.0000e+00 1.0000e+00
       -6  1    1    2    0  502 -2.9138722790e+01 +8.3834286712e+01 +1.1432265374e+02 2.2555691511e+02 1.7300000000e+02 0.0000e+00 1.0000e+00
       21  1    1    2  504  503 -5.0355079763e+01 +9.5299779350e+01 +2.6799830956e+02 2.8886117069e+02 0.0000000000e+00 0.0000e+00 -1.0000e+00
       21  1    1    2  505  504 +1.6766368116e+01 -2.2834179308e+01 +7.6009565374e+01 8.1116982641e+01 0.0000000000e+00 0.0000e+00 1.0000e+00
<mgrwt>
<rscale>  4 0.21501824E+03</rscale>
<asrwt>0</asrwt>
<pdfrwt beam="1">  1       21 0.10837409E+00 0.21501824E+03</pdfrwt>
<pdfrwt beam="2">  1       21 0.23185567E-01 0.21501824E+03</pdfrwt>
<totfact> 0.11656902E+04</totfact>
</mgrwt>
</event>
<event>
 6      1 +2.5168323e+02 1.76677900e+02 7.54677100e-03 1.15942100e-01
       21 -1    0    0  504  502 +0.0000000000e+00 +0.0000000000e+00 +5.5090568723e+02 5.5090568723e+02 0.0000000000e+00 0.0000e+00 1.0000e+00
       21 -1    0    0  501  503 -0.0000000000e+00 -0.0000000000e+00 -3.7156497486e+02 3.7156497486e+02 0.0000000000e+00 0.0000e+00 -1.0000e+00
        6  1    1    2  501    0 -7.3640692437e+01 -9.0521886343e+01 -1.2421947921e-01 2.0867721227e+02 1.7300000000e+02 0.0000e+00 -1.0000e+00
       -6  1    1    2    0  502 +2.9033714797e+01 -1.1231207158e+01 +4.0643726008e+02 4.4281976355e+02 1.7300000000e+02 0.0000e+00 1.0000e+00
       21  1    1    2  504  505 -1.2777161819e+01 +3.1466735851e+01 -1.4423295865e+02 1.4817745338e+02 0.0000000000e+00 0.0000e+00 -1.0000e+00
       21  1    1    2  505  503 +5.7384139459e+01 +7.0286357650e+01 -8.2739369581e+01 1.2279623289e+02 0.0000000000e+00 0.0000e+00 -1.0000e+00
<mgrwt>
<rscale>  4 0.17667792E+03</rscale>
<asrwt>0</asrwt>
<pdfrwt beam="1">  1       21 0.84754722E-01 0.17667792E+03</pdfrwt>
<pdfrwt beam="2">  1       21 0.57163842E-01 0.17667792E+03</pdfrwt>
<totfact> 0.35141325E+03</totfact>
</mgrwt>
</event>
<event>
 6      1 +2.5168323e+02 2.96800700e+02 7.54677100e-03 1.15942100e-01
       21 -1    0    0  504  502 +0.0000000000e+00 +0.0000000000e+00 +3.9839862179e+02 3.9839862179e+02 0.0000000000e+00 0.0000e+00 -1.0000e+00
       21 -1    0    0  501  503 -0.0000000000e+00 -0.0000000000e+00 -1.0672690515e+03 1.0672690515e+03 0.0000000000e+00 0.0000e+00 1.0000e+00
        6  1    1    2  501    0 +2.1131676093e+02 -2.3781876078e+02 +2.6007635437e+01 3.6306739530e+02 1.7300000000e+02 0.0000e+00 -1.0000e+00
       -6  1    1    2    0  502 -1.1962090812e+01 +1.1377892854e+02 +1.2673755973e+02 2.4306407641e+02 1.7300000000e+02 0.0000e+00 -1.0000e+00
       21  1    1    2  504  505 -1.1309246866e+01 +4.8531506428e+01 -1.5819964876e+02 1.6586239794e+02 0.0000000000e+00 0.0000e+00 -1.0000e+00
       21  1    1    2  505  503 -1.8804542325e+02 +7.5508325817e+01 -6.6341597616e+02 6.9367380367e+02 0.0000000000e+00 0.0000e+00 1.0000e+00
<mgrwt>
<rscale>  4 0.27136551E+03</rscale>
<asrwt>0</asrwt>
<pdfrwt beam="1">  1       21 0.61292096E-01 0.29680072E+03</pdfrwt>
<pdfrwt beam="2">  1       21 0.16419524E+00 0.29680072E+03</pdfrwt>
<totfact> 0.52745185E+02</totfact>
</mgrwt>
</event>
<event>
 6      1 +2.5168323e+02 1.77599200e+02 7.54677100e-03 1.11910500e-01
       21 -1    0    0  501  502 +0.0000000000e+00 +0.0000000000e+00 +9.3987200865e+01 9.3987200865e+01 0.0000000000e+00 0.0000e+00 -1.0000e+00
       21 -1    0    0  505  503 -0.0000000000e+00 -0.0000000000e+00 -1.5754430273e+03 1.5754430273e+03 0.0000000000e+00 0.0000e+00 -1.0000e+00
        6  1    1    2  501    0 -1.1012404624e+01 +4.7729647583e+01 -2.7293743036e+01 1.8186077291e+02 1.7300000000e+02 0.0000e+00 -1.0000e+00
       -6  1    1    2    0  504 +3.5230842991e+01 +1.5943366981e+01 -5.1598991011e+02 5.4559141359e+02 1.7300000000e+02 0.0000e+00 -1.0000e+00
       21  1    1    2  504  503 -1.5165063361e+01 -1.4810467506e+01 -5.7859913194e+02 5.7898729224e+02 0.0000000000e+00 0.0000e+00 -1.0000e+00
       21  1    1    2  505  502 -9.0533750067e+00 -4.8862547058e+01 -3.5957304135e+02 3.6299074943e+02 0.0000000000e+00 0.0000e+00 -1.0000e+00
<mgrwt>
<rscale>  4 0.17759922E+03</rscale>
<asrwt>0</asrwt>
<pdfrwt beam="1">  1       21 0.14459572E-01 0.17759922E+03</pdfrwt>
<pdfrwt beam="2">  1       21 0.24237581E+00 0.17759922E+03</pdfrwt>
<totfact> 0.31451838E+03</totfact>
</mgrwt>
</event>
<event>
 6      1 +2.5168323e+02 1.85222800e+02 7.54677100e-03 1.03924000e-01
       21 -1    0    0  504  502 +0.0000000000e+00 +0.0000000000e+00 +5.3514600621e+02 5.3514600621e+02 0.0000000000e+00 0.0000e+00 1.0000e+00
       21 -1    0    0  501  503 -0.0000000000e+00 -0.0000000000e+00 -2.0541212601e+02 2.0541212601e+02 0.0000000000e+00 0.0000e+00 1.0000e+00
        6  1    1    2  501    0 -9.1608256904e-01 +5.5594687503e+01 +2.4256556645e+02 3.0308194026e+02 1.7300000000e+02 0.0000e+00 1.0000e+00
       -6  1    1    2    0  505 -7.8799151286e+01 +2.9243473644e+01 -9.7935845889e+01 2.1583539308e+02 1.7300000000e+02 0.0000e+00 -1.0000e+00
       21  1    1    2  504  503 +4.5887668359e+01 -2.2853317524e+01 +7.5522934335e+01 9.1277959223e+01 0.0000000000e+00 0.0000e+00 1.0000e+00
       21  1    1    2  505  502 +3.3827565495e+01 -6.1984843623e+01 +1.0958122530e+02 1.3036283966e+02 0.0000000000e+00 0.0000e+00 1.0000e+00
<mgrwt>
<rscale>  4 0.18522282E+03</rscale>
<asrwt>0</asrwt>
<pdfrwt beam="1">  1       21 0.82330154E-01 0.18522282E+03</pdfrwt>
<pdfrwt beam="2">  1       21 0.31601866E-01 0.18522282E+03</pdfrwt>
<totfact> 0.12466355E+04</totfact>
</mgrwt>
</event>
<event>
 6      1 +2.5168323e+02 1.88346300e+02 7.54677100e-03 1.16820100e-01
       21 -1    0    0  505  502 +0.0000000000e+00 +0.0000000000e+00 +1.7762757176e+02 1.7762757176e+02 0.0000000000e+00 0.0000e+00 -1.0000e+00
       21 -1    0    0  504  503 -0.0000000000e+00 -0.0000000000e+00 -5.3261013659e+02 5.3261013659e+02 0.0000000000e+00 0.0000e+00 -1.0000e+00
        6  1    1    2  501    0 -3.7471570308e+01 -3.6481068943e+01 -1.5992633984e+01 1.8143800956e+02 1.7300000000e+02 0.0000e+00 -1.0000e+00
       -6  1    1    2    0  503 +8.1044213463e+01 +5.4080411815e+01 -1.1212953782e+02 2.2802387754e+02 1.7300000000e+02 0.0000e+00 -1.0000e+00
       21  1    1    2  504  502 -4.4418026342e+00 -3.1675656193e+01 -2.5077340837e+02 2.5280502200e+02 0.0000000000e+00 0.0000e+00 -1.0000e+00
       21  1    1    2  505  501 -3.9130840521e+01 +1.4076313321e+01 +2.3913015338e+01 4.7970799234e+01 0.0000000000e+00 0.0000e+00 -1.0000e+00
<mgrwt>
<rscale>  4 0.18834626E+03</rscale>
<asrwt>0</asrwt>
<pdfrwt beam="1">  1       21 0.27327319E-01 0.18834626E+03</pdfrwt>
<pdfrwt beam="2">  1       21 0.81940020E-01 0.18834626E+03</pdfrwt>
<totfact> 0.16679467E+04</totfact>
</mgrwt>
</event>
<event>
 6      1 +2.5168323e+02 3.05462300e+02 7.54677100e-03 1.11910500e-01
       21 -1    0    0  501  502 +0.0000000000e+00 +0.0000000000e+00 +3.3628995896e+02 3.3628995896e+02 0.0000000000e+00 0.0000e+00 1.0000e+00
       21 -1    0    0  505  503 -0.0000000000e+00 -0.0000000000e+00 -7.1658624697e+02 7.1658624697e+02 0.0000000000e+00 0.0000e+00 1.0000e+00
        6  1    1    2  501    0 +9.7111023776e+01 -2.7710227473e+01 -7.1632068293e+01 2.1274059522e+02 1.7300000000e+02 0.0000e+00 1.0000e+00
       -6  1    1    2    0  504 -1.1533930457e+02 -2.1882786055e+02 +1.1759761176e+02 3.2395522225e+02 1.7300000000e+02 0.0000e+00 1.0000e+00
       21  1    1    2  504  503 -9.1459152658e+00 -2.0605432109e+01 -3.4664490535e+01 4.1350435336e+01 0.0000000000e+00 0.0000e+00 -1.0000e+00
       21  1    1    2  505  502 +2.7374196058e+01 +2.6714352013e+02 -3.9159734094e+02 4.7482995313e+02 0.0000000000e+00 0.0000e+00 1.0000e+00
<mgrwt>
<rscale>  4 0.27478844E+03</rscale>
<asrwt>0</asrwt>
<pdfrwt beam="1">  1       21 0.51736917E-01 0.30546226E+03</pdfrwt>
<pdfrwt beam="2">  1       21 0.11024404E+00 0.30546226E+03</pdfrwt>
<totfact> 0.21235012E+03</totfact>
</mgrwt>
</event>
<event>
 6      1 +2.5168323e+02 2.03384000e+02 7.54677100e-03 1.04003000e-01
       21 -1    0    0  504  502 +0.0000000000e+00 +0.0000000000e+00 +6.8937039920e+02 6.8937039920e+02 0.0000000000e+00 0.0000e+00 1.0000e+00
       21 -1    0    0  505  503 -0.0000000000e+00 -0.0000000000e+00 -8.2203051417e+02 8.2203051417e+02 0.0000000000e+00 0.0000e+00 1.0000e+00
        6  1    1    2  501    0 +2.5502091324e+01 +5.7148544442e+01 +4.4260213131e+02 4.7931405095e+02 1.7300000000e+02 0.0000e+00 1.0000e+00
       -6  1    1    2    0  503 -2.1342992627e+02 -3.5940997499e+01 -2.4216783709e+01 2.7813583254e+02 1.7300000000e+02 0.0000e+00 1.0000e+00
       21  1    1    2  504  501 +1.5377402094e+02 -5.5577319190e+01 -6.3571035614e+02 6.5640151190e+02 0.0000000000e+00 0.0000e+00 1.0000e+00
       21  1    1    2  505  502 +3.4153814001e+01 +3.4369772247e+01 +8.4664893566e+01 9.7549517977e+01 0.0000000000e+00 0.0000e+00 1.0000e+00
<mgrwt>
<rscale>  4 0.20338402E+03</rscale>
<asrwt>0</asrwt>
<pdfrwt beam="1">  1       21 0.10605698E+00 0.20338402E+03</pdfrwt>
<pdfrwt beam="2">  1       21 0.12646623E+00 0.20338402E+03</pdfrwt>
<totfact> 0.32631370E+02</totfact>
</mgrwt>
</event>
<event>
 6      1 +2.5168323e+02 1.93367600e+02 7.54677100e-03 1.16820100e-01
       21 -1    0    0  501  502 +0.0000000000e+00 +0.0000000000e+00 +2.0083973623e+02 2.0083973623e+02 0.0000000000e+00 0.0000e+00 1.0000e+00
       21 -1    0    0  504  503 -0.0000000000e+00 -0.0000000000e+00 -1.0903665171e+03 1.0903665171e+03 0.0000000000e+00 0.0000e+00 1.0000e+00
        6  1    1    2  501    0 +7.6462360501e+01 -5.2109583511e+01 +8.7070780340e+01 2.1464440840e+02 1.7300000000e+02 0.0000e+00 1.0000e+00
       -6  1    1    2    0  503 -9.2518927393e+01 -5.2657641581e+01 -2.8584853373e+02 3.5067215940e+02 1.7300000000e+02 0.0000e+00 -1.0000e+00
       21  1    1    2  504  505 +2.3135611239e+01 +1.7793329785e+01 -5.9737643860e+02 5.9808901384e+02 0.0000000000e+00 0.0000e+00 1.0000e+00
       21  1    1    2  505  502 -7.0790443465e+00 +8.6973895307e+01 -9.3372588927e+01 1.2780067174e+02 0.0000000000e+00 0.0000e+00 1.0000e+00
<mgrwt>
<rscale>  4 0.19336758E+03</rscale>
<asrwt>0</asrwt>
<pdfrwt beam="1">  1       21 0.30898421E-01 0.19336758E+03</pdfrwt>
<pdfrwt beam="2">  1       21 0.16774869E+00 0.19336758E+03</pdfrwt>
<totfact> 0.22251067E+03</totfact>
</mgrwt>
</event>
<event>
 6      1 +2.5168323e+02 3.86298900e+02 7.54677100e-03 1.16820100e-01
       21 -1    0    0  505  502 +0.0000000000e+00 +0.0000000000e+00 +3.3935733493e+02 3.3935733493e+02 0.0000000000e+00 0.0000e+00 -1.0000e+00
       21 -1    0    0  501  503 -0.0000000000e+00 -0.0000000000e+00 -6.0230506163e+02 6.0230506163e+02 0.0000000000e+00 0.0000e+00 1.0000e+00
        6  1    1    2  501    0 +1.8218684244e+02 -2.6824257505e+02 -2.7992136681e+02 4.6198603466e+02 1.7300000000e+02 0.0000e+00 1.0000e+00
       -6  1    1    2    0  502 -1.5342789530e+02 +3.2092034297e+02 +4.3293671326e+01 3.9791120563e+02 1.7300000000e+02 0.0000e+00 1.0000e+00
       21  1    1    2  504  503 +7.9007760020e+00 -3.6313376855e+01 -1.4769205740e+01 3.9990161768e+01 0.0000000000e+00 0.0000e+00 1.0000e+00
       21  1    1    2  505  504 -3.6659723141e+01 -1.6364391073e+01 -1.1550825476e+01 4.1774994496e+01 0.0000000000e+00 0.0000e+00 1.0000e+00
<mgrwt>
<rscale>  4 0.38629891E+03</rscale>
<asrwt>0</asrwt>
<pdfrwt beam="1">  1       21 0.52208821E-01 0.38629891E+03</pdfrwt>
<pdfrwt beam="2">  1       21 0.92662317E-01 0.38629891E+03</pdfrwt>
<totfact> 0.30471121E+03</totfact>
</mgrwt>
</event>
<event>
 6      1 +2.5168323e+02 2.15633700e+02 7.54677100e-03 1.07064900e-01
       21 -1    0    0  504  502 +0.0000000000e+00 +0.0000000000e+00 +7.5395355754e+02 7.5395355754e+02 0.0000000000e+00 0.0000e+00 1.0000e+00
       21 -1    0    0  501  503 -0.0000000000e+00 -0.0000000000e+00 -1.4808421235e+02 1.4808421235e+02 0.0000000000e+00 0.0000e+00 1.0000e+00
        6  1    1    2  501    0 +1.3728471479e+02 -2.0406010310e+01 +9.0880565179e+01 2.3969099962e+02 1.7300000000e+02 0.0000e+00 1.0000e+00
       -6  1    1    2    0  505 -1.0263856797e+02 -1.2139371327e+02 +1.8180490587e+02 2.9707428878e+02 1.7300000000e+02 0.0000e+00 -1.0000e+00
       21  1    1    2  504  503 -1.2566421762e+01 +4.0802655570e+01 +1.3724841908e+02 1.4373552170e+02 0.0000000000e+00 0.0000e+00 1.0000e+00
       21  1    1    2  505  502 -2.2079725064e+01 +1.0099706801e+02 +1.9593545506e+02 2.2153695979e+02 0.0000000000e+00 0.0000e+00 1.0000e+00
<mgrwt>
<rscale>  4 0.21563369E+03</rscale>
<asrwt>0</asrwt>
<pdfrwt beam="1">  1       21 0.11599285E+00 0.21563369E+03</pdfrwt>
<pdfrwt beam="2">  1       21 0.22782187E-01 0.21563369E+03</pdfrwt>
<totfact> 0.10209195E+04</totfact>
</mgrwt>
</event>
<event>
 6      1 +2.5168323e+02 1.83916300e+02 7.54677100e-03 1.15942100e-01
       21 -1    0    0  504  502 +0.0000000000e+00 +0.0000000000e+00 +2.7897378710e+02 2.7897378710e+02 0.0000000000e+00 0.0000e+00 1.0000e+00
       21 -1    0    0  501  503 -0.0000000000e+00 -0.0000000000e+00 -2.1787196120e+02 2.1787196120e+02 0.0000000000e+00 0.0000e+00 1.0000e+00
        6  1    1    2  501    0 +2.0546304598e+01 -7.0512068223e+01 -6.7864739173e+00 1.8806689934e+02 1.7300000000e+02 0.0000e+00 1.0000e+00
       -6  1    1    2    0  502 -6.2142594995e+01 +2.4130904497e+01 +1.2162813244e+02 2.2173498882e+02 1.7300000000e+02 0.0000e+00 1.0000e+00
       21  1    1    2  504  505 +2.4177768307e+01 +7.1869557491e+00 -1.5667342802e+01 2.9693137991e+01 0.0000000000e+00 0.0000e+00 1.0000e+00
       21  1    1    2  505  503 +1.7418522089e+01 +3.9194207977e+01 -3.8072489824e+01 5.7350722159e+01 0.0000000000e+00 0.0000e+00 1.0000e+00
<mgrwt>
<rscale>  4 0.18391633E+03</rscale>
<asrwt>0</asrwt>
<pdfrwt beam="1">  1       21 0.42919044E-01 0.18391633E+03</pdfrwt>
<pdfrwt beam="2">  1       21 0.33518763E-01 0.18391633E+03</pdfrwt>
<totfact> 0.44945830E+04</totfact>
</mgrwt>
</event>
<event>
 6      1 +2.5168323e+02 7.76142600e+02 7.54677100e-03 1.05831300e-01
       21 -1    0    0  504  502 +0.0000000000e+00 +0.0000000000e+00 +1.3033193670e+03 1.3033193670e+03 0.0000000000e+00 0.0000e+00 1.0000e+00
       21 -1    0    0  501  503 -0.0000000000e+00 -0.0000000000e+00 -5.2427377430e+02 5.2427377430e+02 0.0000000000e+00 0.0000e+00 1.0000e+00
        6  1    1    2  501    0 +6.6279040663e+01 -1.7606799599e+02 +7.7820294587e+01 2.6716633151e+02 1.7300000000e+02 0.0000e+00 1.0000e+00
       -6  1    1    2    0  505 +3.2576408747e+02 -2.5902418079e+02 +5.7874181215e+01 4.5441631548e+02 1.7300000000e+02 0.0000e+00 1.0000e+00
       21  1    1    2  504  503 +1.7585552147e+02 -2.3058354889e+00 +7.4907681030e+01 1.9115868274e+02 0.0000000000e+00 0.0000e+00 1.0000e+00
       21  1    1    2  505  502 -5.6789864961e+02 +4.3739801227e+02 +5.6844343586e+02 9.1485181157e+02 0.0000000000e+00 0.0000e+00 1.0000e+00
<mgrwt>
<rscale>  4 0.77614256E+03</rscale>
<asrwt>0</asrwt>
<pdfrwt beam="1">  1       21 0.20051067E+00 0.77614256E+03</pdfrwt>
<pdfrwt beam="2">  1       21 0.80657504E-01 0.77614256E+03</pdfrwt>
<totfact> 0.12639786E+02</totfact>
</mgrwt>
</event>
<event>
 6      1 +2.5168323e+02 2.69262000e+02 7.54677100e-03 1.11471900e-01
       21 -1    0    0  503  502 +0.0000000000e+00 +0.0000000000e+00 +5.4909682095e+02 5.4909682095e+02 0.0000000000e+00 0.0000e+00 -1.0000e+00
       21 -1    0    0  501  503 -0.0000000000e+00 -0.0000000000e+00 -5.3580644516e+02 5.3580644516e+02 0.0000000000e+00 0.0000e+00 -1.0000e+00
        6  1    1    2  501    0 -2.0504500212e+02 -5.8854282092e+01 -2.0886383925e+02 3.4505127555e+02 1.7300000000e+02 0.0000e+00 1.0000e+00
       -6  1    1    2    0  504 +2.0585949066e+02 -1.8585363437e+02 -4.6508361299e+01 3.3016924595e+02 1.7300000000e+02 0.0000e+00 -1.0000e+00
       21  1    1    2  504  505 -3.7010018293e+00 +2.2191702214e+02 +1.0699580070e+02 2.4639189008e+02 0.0000000000e+00 0.0000e+00 -1.0000e+00
       21  1    1    2  505  502 +2.8865132942e+00 +2.2790894325e+01 +1.6166677564e+02 1.6329085452e+02 0.0000000000e+00 0.0000e+00 -1.0000e+00
<mgrwt>
<rscale>  4 0.26926202E+03</rscale>
<asrwt>0</asrwt>
<pdfrwt beam="1">  1       21 0.84476434E-01 0.26926202E+03</pdfrwt>
<pdfrwt beam="2">  1       21 0.82431760E-01 0.26926202E+03</pdfrwt>
<totfact> 0.14674065E+03</totfact>
</mgrwt>
</event>
<event>
 6      1 +2.5168323e+02 2.04403700e+02 7.54677100e-03 1.17132900e-01
       21 -1    0    0  505  502 +0.0000000000e+00 +0.0000000000e+00 +1.8837689631e+02 1.8837689631e+02 0.0000000000e+00 0.0000e+00 1.0000e+00
       21 -1    0    0  504  503 -0.0000000000e+00 -0.0000000000e+00 -2.8249548082e+03 2.8249548082e+03 0.0000000000e+00 0.0000e+00 1.0000e+00
        6  1    1    2  501    0 -3.1840843650e+00 +7.2740927049e+01 -1.4100984124e+02 2.3476404364e+02 1.7300000000e+02 0.0000e+00 1.0000e+00
       -6  1    1    2    0  502 +5.8705573963e+01 -1.1876954150e+02 -1.7028392996e+03 1.7167245640e+03 1.7300000000e+02 0.0000e+00 1.0000e+00
       21  1    1    2  504  501 -5.3725275051e+01 +5.4843243905e+00 -9.2341881182e+02 9.2499664054e+02 0.0000000000e+00 0.0000e+00 -1.0000e+00
       21  1    1    2  505  503 -1.7962145468e+00 +4.0544290061e+01 +1.3069004078e+02 1.3684645631e+02 0.0000000000e+00 0.0000e+00 1.0000e+00
<mgrwt>
<rscale>  4 0.20440365E+03</rscale>
<asrwt>0</asrwt>
<pdfrwt beam="1">  1       21 0.28981061E-01 0.20440365E+03</pdfrwt>
<pdfrwt beam="2">  1       21 0.43460843E+00 0.20440365E+03</pdfrwt>
<totfact> 0.58540194E+01</totfact>
</mgrwt>
</event>
<event>
 6      1 +2.5168323e+02 2.05735200e+02 7.54677100e-03 1.09842800e-01
       21 -1    0    0  504  502 +0.0000000000e+00 +0.0000000000e+00 +1.3644183198e+03 1.3644183198e+03 0.0000000000e+00 0.0000e+00 1.0000e+00
       21 -1    0    0  505  503 -0.0000000000e+00 -0.0000000000e+00 -9.6394425294e+01 9.6394425294e+01 0.0000000000e+00 0.0000e+00 1.0000e+00
        6  1    1    2  501    0 +7.0512999882e+01 -1.4700821973e+02 +6.3461287743e+02 6.7767691714e+02 1.7300000000e+02 0.0000e+00 1.0000e+00
       -6  1    1    2    0  503 -7.8197202144e+01 +6.5574052367e+01 +8.1316579304e+01 2.1669366589e+02 1.7300000000e+02 0.0000e+00 1.0000e+00
       21  1    1    2  504  501 +1.9642480827e+01 +3.9229050102e+01 +7.1757831579e+01 8.4106669283e+01 0.0000000000e+00 0.0000e+00 -1.0000e+00
       21  1    1    2  505  502 -1.1958278565e+01 +4.2205117264e+01 +4.8033660618e+02 4.8233549277e+02 0.0000000000e+00 0.0000e+00 1.0000e+00
<mgrwt>
<rscale>  4 0.20573522E+03</rscale>
<asrwt>0</asrwt>
<pdfrwt beam="1">  1       21 0.20991050E+00 0.20573522E+03</pdfrwt>
<pdfrwt beam="2">  1       21 0.14829913E-01 0.20573522E+03</pdfrwt>
<totfact> 0.45966115E+03</totfact>
</mgrwt>
</event>
<event>
 6      1 +2.5168323e+02 1.75013000e+02 7.54677100e-03 1.11896800e-01
       21 -1    0    0  501  502 +0.0000000000e+00 +0.0000000000e+00 +3.1457640360e+02 3.1457640360e+02 0.0000000000e+00 0.0000e+00 -1.0000e+00
       21 -1    0    0  504  503 -0.0000000000e+00 -0.0000000000e+00 -5.1583690816e+02 5.1583690816e+02 0.0000000000e+00 0.0000e+00 -1.0000e+00
        6  1    1    2  501    0 -6.9048580855e+01 -2.1456750440e+01 +2.1008893622e+02 2.8159271969e+02 1.7300000000e+02 0.0000e+00 -1.0000e+00
       -6  1    1    2    0  503 +1.7501573154e+01 -1.8965017078e+01 -4.4157574811e+02 4.7495696463e+02 1.7300000000e+02 0.0000e+00 -1.0000e+00
       21  1    1    2  504  505 +2.5445813123e+01 +1.9153108926e+01 +2.3370549588e+01 3.9503336252e+01 0.0000000000e+00 0.0000e+00 -1.0000e+00
       21  1    1    2  505  502 +2.6101194579e+01 +2.1268658592e+01 +6.8557577383e+00 3.4360291194e+01 0.0000000000e+00 0.0000e+00 -1.0000e+00
<mgrwt>
<rscale>  4 0.17501302E+03</rscale>
<asrwt>0</asrwt>
<pdfrwt beam="1">  1       21 0.48396370E-01 0.17501302E+03</pdfrwt>
<pdfrwt beam="2">  1       21 0.79359524E-01 0.17501302E+03</pdfrwt>
<totfact> 0.57906166E+03</totfact>
</mgrwt>
</event>
<event>
 6      1 +2.5168323e+02 1.80265100e+02 7.54677100e-03 1.12989000e-01
       21 -1    0    0  503  502 +0.0000000000e+00 +0.0000000000e+00 +7.2485365183e+01 7.2485365183e+01 0.0000000000e+00 0.0000e+00 -1.0000e+00
       21 -1    0    0  505  503 -0.0000000000e+00 -0.0000000000e+00 -1.6216640247e+03 1.6216640247e+03 0.0000000000e+00 0.0000e+00 -1.0000e+00
        6  1    1    2  501    0 -6.1563274143e+00 -1.7196735249e+01 -2.1813744661e+02 2.7900998850e+02 1.7300000000e+02 0.0000e+00 1.0000e+00
       -6  1    1    2    0  502 +7.3435149731e+01 -9.6010246300e+01 -2.5641953631e+02 3.3210038725e+02 1.7300000000e+02 0.0000e+00 -1.0000e+00
       21  1    1    2  504  501 -4.3086890636e+01 +6.9430530354e+01 -5.4975268277e+02 5.5579230915e+02 0.0000000000e+00 0.0000e+00 -1.0000e+00
       21  1    1    2  505  504 -2.4191931681e+01 +4.3776451195e+01 -5.2486899381e+02 5.2724670497e+02 0.0000000000e+00 0.0000e+00 -1.0000e+00
<mgrwt>
<rscale>  4 0.18026510E+03</rscale>
<asrwt>0</asrwt>
<pdfrwt beam="1">  1       21 0.11151596E-01 0.18026510E+03</pdfrwt>
<pdfrwt beam="2">  1       21 0.24948674E+00 0.18026510E+03</pdfrwt>
<totfact> 0.45386837E+03</totfact>
</mgrwt>
</event>
<event>
 6      1 +2.5168323e+02 2.21152100e+02 7.54677100e-03 1.16820100e-01
       21 -1    0    0  505  502 +0.0000000000e+00 +0.0000000000e+00 +1.7012206827e+02 1.7012206827e+02 0.0000000000e+00 0.0000e+00 1.0000e+00
       21 -1    0    0  501  503 -0.0000000000e+00 -0.0000000000e+00 -1.2092684128e+03 1.2092684128e+03 0.0000000000e+00 0.0000e+00 1.0000e+00
        6  1    1    2  501    0 +1.3516457595e+02 -7.1671879781e+01 -4.9574597499e-02 2.3094441626e+02 1.7300000000e+02 0.0000e+00 1.0000e+00
       -6  1    1    2    0  502 -1.1350452651e+02 +1.1188553173e+02 -5.6473021612e+02 6.1176046517e+02 1.7300000000e+02 0.0000e+00 1.0000e+00
       21  1    1    2  504  503 +2.6250628403e+01 -1.5711111783e+01 -4.8143907767e+02 4.8241011602e+02 0.0000000000e+00 0.0000e+00 1.0000e+00
       21  1    1    2  505  504 -4.7910677847e+01 -2.4502540167e+01 +7.0725238865e+00 5.4275483605e+01 0.0000000000e+00 0.0000e+00 1.0000e+00
<mgrwt>
<rscale>  4 0.22115206E+03</rscale>
<asrwt>0</asrwt>
<pdfrwt beam="1">  1       21 0.26172625E-01 0.22115206E+03</pdfrwt>
<pdfrwt beam="2">  1       21 0.18604130E+00 0.22115206E+03</pdfrwt>
<totfact> 0.22371752E+03</totfact>
</mgrwt>
</event>
<event>
 6      1 +2.5168323e+02 1.73302300e+02 7.54677100e-03 1.07064900e-01
       21 -1    0    0  504  502 +0.0000000000e+00 +0.0000000000e+00 +5.1123936347e+02 5.1123936347e+02 0.0000000000e+00 0.0000e+00 -1.0000e+00
       21 -1    0    0  501  503 -0.0000000000e+00 -0.0000000000e+00 -2.9602304775e+02 2.9602304775e+02 0.0000000000e+00 0.0000e+00 -1.0000e+00
        6  1    1    2  501    0 -9.8237947096e+00 -9.1958028484e+00 -1.7933239500e+02 2.4953993193e+02 1.7300000000e+02 0.0000e+00 -1.0000e+00
       -6  1    1    2    0  505 -8.8561408340e+01 -1.4920331307e+01 +8.2005793067e+01 2.1147030390e+02 1.7300000000e+02 0.0000e+00 -1.0000e+00
       21  1    1    2  504  503 +7.1138708130e+01 -3.1574716151e+01 +1.1232631344e+02 1.3665606165e+02 0.0000000000e+00 0.0000e+00 -1.0000e+00
       21  1    1    2  505  502 +2.7246494920e+01 +5.5690850307e+01 +2.0021660421e+02 2.0959611374e+02 0.0000000000e+00 0.0000e+00 -1.0000e+00
<mgrwt>
<rscale>  4 0.17330230E+03</rscale>
<asrwt>0</asrwt>
<pdfrwt beam="1">  1       21 0.78652210E-01 0.17330230E+03</pdfrwt>
<pdfrwt beam="2">  1       21 0.45542007E-01 0.17330230E+03</pdfrwt>
<totfact> 0.67061056E+03</totfact>
</mgrwt>
</event>
<event>
 6      1 +2.5168323e+02 2.91614500e+02 7.54677100e-03 1.11471900e-01
       21 -1    0    0  503  502 +0.0000000000e+00 +0.0000000000e+00 +6.2730925330e+02 6.2730925330e+02 0.0000000000e+00 0.0000e+00 -1.0000e+00
       21 -1    0    0  501  503 -0.0000000000e+00 -0.0000000000e+00 -1.2811897713e+03 1.2811897713e+03 0.0000000000e+00 0.0000e+00 -1.0000e+00
        6  1    1    2  501    0 -1.3458016881e+02 -1.5855840055e+02 -6.4201625311e+02 6.9668246532e+02 1.7300000000e+02 0.0000e+00 -1.0000e+00
       -6  1    1    2    0  504 +1.4771172427e+02 +2.6080784078e+02 -4.1249676965e+02 5.3844411806e+02 1.7300000000e+02 0.0000e+00 -1.0000e+00
       21  1    1    2  504  505 +4.6132761057e+01 -1.3435813273e+02 -9.6472466758e+01 1.7171859630e+02 0.0000000000e+00 0.0000e+00 -1.0000e+00
       21  1    1    2  505  502 -5.9264316513e+01 +3.2108692499e+01 +4.9710497155e+02 5.0165384489e+02 0.0000000000e+00 0.0000e+00 -1.0000e+00
<mgrwt>
<rscale>  4 0.29161447E+03</rscale>
<asrwt>0</asrwt>
<pdfrwt beam="1">  1       21 0.96509117E-01 0.29161447E+03</pdfrwt>
<pdfrwt beam="2">  1       21 0.19710612E+00 0.29161447E+03</pdfrwt>
<totfact> 0.11172563E+02</totfact>
</mgrwt>
</event>
<event>
 6      1 +2.5168323e+02 1.73769800e+02 7.54677100e-03 1.15942100e-01
       21 -1    0    0  504  502 +0.0000000000e+00 +0.0000000000e+00 +5.6889822377e+01 5.6889822377e+01 0.0000000000e+00 0.0000e+00 1.0000e+00
       21 -1    0    0  501  503 -0.0000000000e+00 -0.0000000000e+00 -1.1369334743e+03 1.1369334743e+03 0.0000000000e+00 0.0000e+00 1.0000e+00
        6  1    1    2  501    0 -3.4893397172e+01 +3.0818259087e+00 -3.3076769601e+02 3.7491774503e+02 1.7300000000e+02 0.0000e+00 1.0000e+00
       -6  1    1    2    0  502 +8.5603305256e-01 +1.5473261681e+01 -1.9118759584e+02 2.5830573246e+02 1.7300000000e+02 0.0000e+00 -1.0000e+00
       21  1    1    2  504  505 +8.0022562125e+00 -2.3307170019e+01 -3.4407005175e+02 3.4495138903e+02 0.0000000000e+00 0.0000e+00 1.0000e+00
       21  1    1    2  505  503 +2.6035107907e+01 +4.7520824284e+00 -2.1401830836e+02 2.1564843019e+02 0.0000000000e+00 0.0000e+00 1.0000e+00
<mgrwt>
<rscale>  4 0.17376978E+03</rscale>
<asrwt>0</asrwt>
<pdfrwt beam="1">  1       21 0.87522813E-02 0.17376978E+03</pdfrwt>
<pdfrwt beam="2">  1       21 0.17491282E+00 0.17376978E+03</pdfrwt>
<totfact> 0.20508189E+04</totfact>
</mgrwt>
</event>
<event>
 6      1 +2.5168323e+02 1.96784200e+02 7.54677100e-03 1.12068800e-01
       21 -1    0    0  504  502 +0.0000000000e+00 +0.0000000000e+00 +6.0089165952e+02 6.0089165952e+02 0.0000000000e+00 0.0000e+00 1.0000e+00
       21 -1    0    0  502  503 -0.0000000000e+00 -0.0000000000e+00 -7.1691269502e+02 7.1691269502e+02 0.0000000000e+00 0.0000e+00 -1.0000e+00
        6  1    1    2  501    0 +1.4337167290e+02 -7.1940375692e+01 +3.9356846088e+02 4.5886380075e+02 1.7300000000e+02 0.0000e+00 1.0000e+00
       -6  1    1    2    0  505 +1.4758428429e+01 +1.7568193517e+01 +1.1049737296e+02 2.0655537287e+02 1.7300000000e+02 0.0000e+00 1.0000e+00
       21  1    1    2  504  501 -4.3561207408e+01 +7.1273207592e+01 -2.0287438568e+02 2.1939796097e+02 0.0000000000e+00 0.0000e+00 1.0000e+00
       21  1    1    2  505  503 -1.1456889392e+02 -1.6901025417e+01 -4.1721248365e+02 4.3298721994e+02 0.0000000000e+00 0.0000e+00 -1.0000e+00
<mgrwt>
<rscale>  4 0.19678425E+03</rscale>
<asrwt>0</asrwt>
<pdfrwt beam="1">  1       21 0.92444871E-01 0.19678425E+03</pdfrwt>
<pdfrwt beam="2">  1       21 0.11029426E+00 0.19678425E+03</pdfrwt>
<totfact> 0.63777266E+02</totfact>
</mgrwt>
</event>
<event>
 6      1 +2.5168323e+02 1.78918200e+02 7.54677100e-03 1.16820100e-01
       21 -1    0    0  504  502 +0.0000000000e+00 +0.0000000000e+00 +3.1476197102e+02 3.1476197102e+02 0.0000000000e+00 0.0000e+00 1.0000e+00
       21 -1    0    0  501  503 -0.0000000000e+00 -0.0000000000e+00 -9.1871454387e+02 9.1871454387e+02 0.0000000000e+00 0.0000e+00 -1.0000e+00
        6  1    1    2  501    0 +5.1810050232e+01 -8.3357819166e+01 -5.0978312238e+02 5.4721169504e+02 1.7300000000e+02 0.0000e+00 -1.0000e+00
       -6  1    1    2    0  505 -1.0619188486e+02 -1.1605069932e+01 +5.3392007735e+01 2.1021679416e+02 1.7300000000e+02 0.0000e+00 1.0000e+00
       21  1    1    2  504  503 -2.7738468254e+01 +1.1954957195e+02 -2.8712912553e+02 3.1225735781e+02 0.0000000000e+00 0.0000e+00 -1.0000e+00
       21  1    1    2  505  502 +8.2120302886e+01 -2.4586682850e+01 +1.3956766733e+02 1.6379066787e+02 0.0000000000e+00 0.0000e+00 1.0000e+00
<mgrwt>
<rscale>  4 0.17891819E+03</rscale>
<asrwt>0</asrwt>
<pdfrwt beam="1">  1       21 0.48424919E-01 0.17891819E+03</pdfrwt>
<pdfrwt beam="2">  1       21 0.14134070E+00 0.17891819E+03</pdfrwt>
<totfact> 0.14419204E+03</totfact>
</mgrwt>
</event>
<event>
 6      1 +2.5168323e+02 2.29442600e+02 7.54677100e-03 9.87464100e-02
       21 -1    0    0  503  502 +0.0000000000e+00 +0.0000000000e+00 +1.1000713967e+03 1.1000713967e+03 0.0000000000e+00 0.0000e+00 1.0000e+00
       21 -1    0    0  505  503 -0.0000000000e+00 -0.0000000000e+00 -2.1293816082e+02 2.1293816082e+02 0.0000000000e+00 0.0000e+00 1.0000e+00
        6  1    1    2  501    0 +1.2653536545e+02 -9.4949878221e+01 +9.4175783963e+02 9.7049652580e+02 1.7300000000e+02 0.0000e+00 1.0000e+00
       -6  1    1    2    0  504 -1.0229784481e+02 +2.1032849857e+01 -1.0707214272e+01 2.0236322359e+02 1.7300000000e+02 0.0000e+00 1.0000e+00
       21  1    1    2  504  502 -1.1254259022e+01 -1.7965333171e+01 +1.8647208533e+01 2.8233489479e+01 0.0000000000e+00 0.0000e+00 -1.0000e+00
       21  1    1    2  505  501 -1.2983261617e+01 +9.1882361535e+01 -6.2564598044e+01 1.1191631861e+02 0.0000000000e+00 0.0000e+00 -1.0000e+00
<mgrwt>
<rscale>  4 0.22944258E+03</rscale>
<asrwt>0</asrwt>
<pdfrwt beam="1">  1       21 0.16924175E+00 0.22944258E+03</pdfrwt>
<pdfrwt beam="2">  1       21 0.32759718E-01 0.22944258E+03</pdfrwt>
<totfact> 0.18720677E+03</totfact>
</mgrwt>
</event>
<event>
 6      1 +2.5168323e+02 2.17708500e+02 7.54677100e-03 1.16820100e-01
       21 -1    0    0  505  502 +0.0000000000e+00 +0.0000000000e+00 +1.6424318705e+02 1.6424318705e+02 0.0000000000e+00 0.0000e+00 -1.0000e+00
       21 -1    0    0  501  503 -0.0000000000e+00 -0.0000000000e+00 -1.3141918488e+03 1.3141918488e+03 0.0000000000e+00 0.0000e+00 -1.0000e+00
        6  1    1    2  501    0 +1.7082983223e+01 +1.1492935079e+02 -5.6207260021e+02 5.9946241908e+02 1.7300000000e+02 0.0000e+00 -1.0000e+00
       -6  1    1    2    0  502 -1.1599148572e+02 -1.8637500327e+02 -2.4544927005e+02 3.7197313179e+02 1.7300000000e+02 0.0000e+00 -1.0000e+00
       21  1    1    2  504  503 +1.5591265775e+01 -1.6219980914e+01 -3.7976027345e+02 3.8042613033e+02 0.0000000000e+00 0.0000e+00 -1.0000e+00
       21  1    1    2  505  504 +8.3317236721e+01 +8.7665633399e+01 +3.7333482013e+01 1.2657335459e+02 0.0000000000e+00 0.0000e+00 -1.0000e+00
<mgrwt>
<rscale>  4 0.21770855E+03</rscale>
<asrwt>0</asrwt>
<pdfrwt beam="1">  1       21 0.25268182E-01 0.21770855E+03</pdfrwt>
<pdfrwt beam="2">  1       21 0.20218336E+00 0.21770855E+03</pdfrwt>
<totfact> 0.18814863E+03</totfact>
</mgrwt>
</event>
<event>
 6      1 +2.5168323e+02 3.21379700e+02 7.54677100e-03 1.07064900e-01
       21 -1    0    0  504  502 +0.0000000000e+00 +0.0000000000e+00 +4.0366543106e+02 4.0366543106e+02 0.0000000000e+00 0.0000e+00 1.0000e+00
       21 -1    0    0  501  503 -0.0000000000e+00 -0.0000000000e+00 -6.1600202383e+02 6.1600202383e+02 0.0000000000e+00 0.0000e+00 -1.0000e+00
        6  1    1    2  501    0 +2.9511403694e+02 +1.3517875221e+02 -3.8261065961e+02 5.3074052672e+02 1.7300000000e+02 0.0000e+00 -1.0000e+00
       -6  1    1    2    0  505 -1.4048327291e+02 -1.2008284811e+02 -1.4231383883e+00 2.5315304798e+02 1.7300000000e+02 0.0000e+00 1.0000e+00
       21  1    1    2  504  503 -9.4842831634e+01 -2.6122702119e-01 +7.4082046788e+01 1.2034691773e+02 0.0000000000e+00 0.0000e+00 1.0000e+00
       21  1    1    2  505  502 -5.9787932398e+01 -1.4834677084e+01 +9.7615158444e+01 1.1542696246e+02 0.0000000000e+00 0.0000e+00 1.0000e+00
<mgrwt>
<rscale>  4 0.32137972E+03</rscale>
<asrwt>0</asrwt>
<pdfrwt beam="1">  1       21 0.62102374E-01 0.32137972E+03</pdfrwt>
<pdfrwt beam="2">  1       21 0.94769542E-01 0.32137972E+03</pdfrwt>
<totfact> 0.20479812E+03</totfact>
</mgrwt>
</event>
<event>
 6      1 +2.5168323e+02 2.96534700e+02 7.54677100e-03 1.06249800e-01
       21 -1    0    0  501  502 +0.0000000000e+00 +0.0000000000e+00 +4.8249256240e+02 4.8249256240e+02 0.0000000000e+00 0.0000e+00 1.0000e+00
       21 -1    0    0  502  503 -0.0000000000e+00 -0.0000000000e+00 -5.4205126495e+02 5.4205126495e+02 0.0000000000e+00 0.0000e+00 1.0000e+00
        6  1    1    2  501    0 -1.1037411162e+02 -9.9875290067e+01 -9.0246280730e+00 2.2840306914e+02 1.7300000000e+02 0.0000e+00 -1.0000e+00
       -6  1    1    2    0  504 -2.2237745436e+02 -3.6214160909e+00 -2.5382338058e+02 3.7923627911e+02 1.7300000000e+02 0.0000e+00 1.0000e+00
       21  1    1    2  504  505 +2.1676012334e+01 -3.5632527859e+00 +4.8670589089e+01 5.3398244572e+01 0.0000000000e+00 0.0000e+00 -1.0000e+00
       21  1    1    2  505  503 +3.1107555364e+02 +1.0705995894e+02 +1.5461871702e+02 3.6350623452e+02 0.0000000000e+00 0.0000e+00 1.0000e+00
<mgrwt>
<rscale>  4 0.27707050E+03</rscale>
<asrwt>0</asrwt>
<pdfrwt beam="1">  1       21 0.74229625E-01 0.29653467E+03</pdfrwt>
<pdfrwt beam="2">  1       21 0.83392502E-01 0.29653467E+03</pdfrwt>
<totfact> 0.18854401E+03</totfact>
</mgrwt>
</event>
<event>
 6      1 +2.5168323e+02 2.00089700e+02 7.54677100e-03 1.16820100e-01
       21 -1    0    0  504  502 +0.0000000000e+00 +0.0000000000e+00 +9.0537329722e+01 9.0537329722e+01 0.0000000000e+00 0.0000e+00 1.0000e+00
       21 -1    0    0  501  503 -0.0000000000e+00 -0.0000000000e+00 -6.7421834934e+02 6.7421834934e+02 0.0000000000e+00 0.0000e+00 1.0000e+00
        6  1    1    2  501    0 -1.0450329825e+02 -2.2876113934e+01 -2.8080468205e+02 3.4673408456e+02 1.7300000000e+02 0.0000e+00 1.0000e+00
       -6  1    1    2    0  505 +8.7911173151e+01 +5.1478135477e+01 -1.6551563396e+02 2.6019761314e+02 1.7300000000e+02 0.0000e+00 1.0000e+00
       21  1    1    2  504  503 +2.0153760805e+01 -7.7611982846e+00 -1.3480860165e+02 1.3652754064e+02 0.0000000000e+00 0.0000e+00 1.0000e+00
       21  1    1    2  505  502 -3.5616357014e+00 -2.0840823258e+01 -2.5521019486e+00 2.1296440719e+01 0.0000000000e+00 0.0000e+00 1.0000e+00
<mgrwt>
<rscale>  4 0.20008966E+03</rscale>
<asrwt>0</asrwt>
<pdfrwt beam="1">  1       21 0.13928820E-01 0.20008966E+03</pdfrwt>
<pdfrwt beam="2">  1       21 0.10372590E+00 0.20008966E+03</pdfrwt>
<totfact> 0.33620163E+04</totfact>
</mgrwt>
</event>
<event>
 6      1 +2.5168323e+02 1.85660900e+02 7.54677100e-03 1.07240600e-01
       21 -1    0    0  505  502 +0.0000000000e+00 +0.0000000000e+00 +6.2262012214e+01 6.2262012214e+01 0.0000000000e+00 0.0000e+00 1.0000e+00
       21 -1    0    0  504  503 -0.0000000000e+00 -0.0000000000e+00 -1.2137409410e+03 1.2137409410e+03 0.0000000000e+00 0.0000e+00 -1.0000e+00
        6  1    1    2  501    0 +3.1134690463e+01 -5.8894284689e+01 -7.4134961640e+02 7.6417678548e+02 1.7300000000e+02 0.0000e+00 -1.0000e+00
       -6  1    1    2    0  502 -7.5307922692e+01 +1.2011253318e+00 -1.5442935745e+02 2.4382401925e+02 1.7300000000e+02 0.0000e+00 1.0000e+00
       21  1    1    2  504  501 +1.8900038228e+01 +1.6247251722e+01 -1.4499781445e+02 1.4712427002e+02 0.0000000000e+00 0.0000e+00 1.0000e+00
       21  1    1    2  505  503 +2.5273194001e+01 +4.1445907635e+01 -1.1070214047e+02 1.2087787845e+02 0.0000000000e+00 0.0000e+00 1.0000e+00
<mgrwt>
<rscale>  4 0.18566093E+03</rscale>
<asrwt>0</asrwt>
<pdfrwt beam="1">  1       21 0.95787705E-02 0.18566093E+03</pdfrwt>
<pdfrwt beam="2">  1       21 0.18672939E+00 0.18566093E+03</pdfrwt>
<totfact> 0.14430740E+04</totfact>
</mgrwt>
</event>
<event>
 6      1 +2.5168323e+02 3.15017400e+02 7.54677100e-03 1.07064900e-01
       21 -1    0    0  504  502 +0.0000000000e+00 +0.0000000000e+00 +9.0981429428e+02 9.0981429428e+02 0.0000000000e+00 0.0000e+00 -1.0000e+00
       21 -1    0    0  501  503 -0.0000000000e+00 -0.0000000000e+00 -4.0525037580e+02 4.0525037580e+02 0.0000000000e+00 0.0000e+00 1.0000e+00
        6  1    1    2  501    0 -2.0070399913e+02 -2.2580271587e+02 +7.4455319814e-01 3.4813577254e+02 1.7300000000e+02 0.0000e+00 1.0000e+00
       -6  1    1    2    0  505 +1.8027713433e+02 +1.6197025600e+02 -1.3251623666e+02 3.2591987047e+02 1.7300000000e+02 0.0000e+00 1.0000e+00
       21  1    1    2  504  503 -1.9703507017e-01 +5.3727744980e+01 +4.7951605921e+02 4.8251669448e+02 0.0000000000e+00 0.0000e+00 -1.0000e+00
       21  1    1    2  505  502 +2.0623899868e+01 +1.0104714892e+01 +1.5681954273e+02 1.5849233259e+02 0.0000000000e+00 0.0000e+00 1.0000e+00
<mgrwt>
<rscale>  4 0.31501740E+03</rscale>
<asrwt>0</asrwt>
<pdfrwt beam="1">  1       21 0.13997143E+00 0.31501740E+03</pdfrwt>
<pdfrwt beam="2">  1       21 0.62346212E-01 0.31501740E+03</pdfrwt>
<totfact> 0.77141244E+02</totfact>
</mgrwt>
</event>
<event>
 6      1 +2.5168323e+02 1.82019700e+02 7.54677100e-03 1.11671100e-01
       21 -1    0    0  503  502 +0.0000000000e+00 +0.0000000000e+00 +5.4071115281e+02 5.4071115281e+02 0.0000000000e+00 0.0000e+00 -1.0000e+00
       21 -1    0    0  501  503 -0.0000000000e+00 -0.0000000000e+00 -1.4153701099e+02 1.4153701099e+02 0.0000000000e+00 0.0000e+00 -1.0000e+00
        6  1    1    2  501    0 +7.1132161094e+01 -7.7502403461e+01 +1.5233003711e+02 2.5337688744e+02 1.7300000000e+02 0.0000e+00 -1.0000e+00
       -6  1    1    2    0  504 -3.4698550297e+01 +1.2644609045e+01 +6.8405279123e+00 1.7703013402e+02 1.7300000000e+02 0.0000e+00 -1.0000e+00
       21  1    1    2  504  505 -4.7882421143e+00 +2.2525106487e+01 +8.5525328806e+01 8.8571381112e+01 0.0000000000e+00 0.0000e+00 -1.0000e+00
       21  1    1    2  505  502 -3.1645368683e+01 +4.2332687929e+01 +1.5447824799e+02 1.6326976122e+02 0.0000000000e+00 0.0000e+00 -1.0000e+00
<mgrwt>
<rscale>  4 0.18201969E+03</rscale>
<asrwt>0</asrwt>
<pdfrwt beam="1">  1       21 0.83186330E-01 0.18201969E+03</pdfrwt>
<pdfrwt beam="2">  1       21 0.21774925E-01 0.18201969E+03</pdfrwt>
<totfact> 0.24924801E+04</totfact>
</mgrwt>
</event>
<event>
 6      1 +2.5168323e+02 1.76693100e+02 7.54677100e-03 1.17132900e-01
       21 -1    0    0  503  502 +0.0000000000e+00 +0.0000000000e+00 +1.2644815231e+02 1.2644815231e+02 0.0000000000e+00 0.0000e+00 -1.0000e+00
       21 -1    0    0  504  503 -0.0000000000e+00 -0.0000000000e+00 -1.3541679578e+03 1.3541679578e+03 0.0000000000e+00 0.0000e+00 -1.0000e+00
        6  1    1    2  501    0 -5.8588145284e+01 -7.9849466684e+01 -4.5914653268e+01 2.0456212622e+02 1.7300000000e+02 0.0000e+00 -1.0000e+00
       -6  1    1    2    0  505 +1.3497795080e+01 +5.0908144901e+01 -7.1715571891e+02 7.3960472879e+02 1.7300000000e+02 0.0000e+00 -1.0000e+00
       21  1    1    2  504  501 +1.4881897655e+01 -5.0535202015e+01 -4.4638863478e+02 4.4948647453e+02 0.0000000000e+00 0.0000e+00 -1.0000e+00
       21  1    1    2  505  502 +3.0208452550e+01 +7.9476523798e+01 -1.8260798529e+01 8.6962780564e+01 0.0000000000e+00 0.0000e+00 1.0000e+00
<mgrwt>
<rscale>  4 0.17669314E+03</rscale>
<asrwt>0</asrwt>
<pdfrwt beam="1">  1       21 0.19453561E-01 0.17669314E+03</pdfrwt>
<pdfrwt beam="2">  1       21 0.20833355E+00 0.17669314E+03</pdfrwt>
<totfact> 0.29379542E+03</totfact>
</mgrwt>
</event>
<event>
 6      1 +2.5168323e+02 4.88466500e+02 7.54677100e-03 1.17132900e-01
       21 -1    0    0  503  502 +0.0000000000e+00 +0.0000000000e+00 +1.0585643606e+03 1.0585643606e+03 0.0000000000e+00 0.0000e+00 1.0000e+00
       21 -1    0    0  504  503 -0.0000000000e+00 -0.0000000000e+00 -6.8330832944e+02 6.8330832944e+02 0.0000000000e+00 0.0000e+00 -1.0000e+00
        6  1    1    2  501    0 -2.7632799224e+02 -4.7149041929e+02 -2.5659576461e+02 6.2803722914e+02 1.7300000000e+02 0.0000e+00 -1.0000e+00
       -6  1    1    2    0  505 +5.8952652656e+01 +3.5989153788e+02 +3.6221102966e+02 5.4233123117e+02 1.7300000000e+02 0.0000e+00 1.0000e+00
       21  1    1    2  504  501 +1.3108778245e+02 +1.3665048603e+01 -1.0897876323e+02 1.7101786777e+02 0.0000000000e+00 0.0000e+00 1.0000e+00
       21  1    1    2  505  502 +8.6287557137e+01 +9.7933832805e+01 +3.7861952938e+02 4.0048636201e+02 0.0000000000e+00 0.0000e+00 1.0000e+00
<mgrwt>
<rscale>  4 0.48846648E+03</rscale>
<asrwt>0</asrwt>
<pdfrwt beam="1">  1       21 0.16285606E+00 0.48846648E+03</pdfrwt>
<pdfrwt beam="2">  1       21 0.10512436E+00 0.48846648E+03</pdfrwt>
<totfact> 0.13845196E+02</totfact>
</mgrwt>
</event>
<event>
 6      1 +2.5168323e+02 2.77027600e+02 7.54677100e-03 1.09842800e-01
       21 -1    0    0  503  502 +0.0000000000e+00 +0.0000000000e+00 +6.6111561145e+02 6.6111561145e+02 0.0000000000e+00 0.0000e+00 -1.0000e+00
       21 -1    0    0  501  503 -0.0000000000e+00 -0.0000000000e+00 -2.9018588388e+02 2.9018588388e+02 0.0000000000e+00 0.0000e+00 1.0000e+00
        6  1    1    2  501    0 +7.8681903340e+01 -1.8367520852e+02 +1.5198273913e+01 2.6474027209e+02 1.7300000000e+02 0.0000e+00 -1.0000e+00
       -6  1    1    2    0  504 +5.4230830702e+01 +2.5343890687e+02 +1.8929755995e+01 3.1218519852e+02 1.7300000000e+02 0.0000e+00 1.0000e+00
       21  1    1    2  504  505 -2.3882094582e+01 -3.0242664553e+00 +1.5639303062e+01 2.8706940441e+01 0.0000000000e+00 0.0000e+00 -1.0000e+00
       21  1    1    2  505  502 -1.0903063946e+02 -6.6739431897e+01 +3.2116239461e+02 3.4566908427e+02 0.0000000000e+00 0.0000e+00 -1.0000e+00
<mgrwt>
<rscale>  4 0.27702756E+03</rscale>
<asrwt>0</asrwt>
<pdfrwt beam="1">  1       21 0.10171009E+00 0.27702756E+03</pdfrwt>
<pdfrwt beam="2">  1       21 0.44643982E-01 0.27702756E+03</pdfrwt>
<totfact> 0.35769149E+03</totfact>
</mgrwt>
</event>
<event>
 6      1 +2.5168323e+02 2.57733700e+02 7.54677100e-03 1.07064900e-01
       21 -1    0    0  505  502 +0.0000000000e+00 +0.0000000000e+00 +1.1976373527e+03 1.1976373527e+03 0.0000000000e+00 0.0000e+00 -1.0000e+00
       21 -1    0    0  504  503 -0.0000000000e+00 -0.0000000000e+00 -7.0035232602e+02 7.0035232602e+02 0.0000000000e+00 0.0000e+00 -1.0000e+00
        6  1    1    2  501    0 +2.2212475678e+02 -4.9104349139e+01 +1.1244189451e+02 3.0712021152e+02 1.7300000000e+02 0.0000e+00 -1.0000e+00
       -6  1    1    2    0  503 -1.8658813486e+02 +6.8566183197e+00 -5.6545801992e+02 6.2010798864e+02 1.7300000000e+02 0.0000e+00 -1.0000e+00
       21  1    1    2  504  502 -1.0010978047e+02 +1.6176928604e+01 +7.8309425830e+02 7.8963300244e+02 0.0000000000e+00 0.0000e+00 -1.0000e+00
       21  1    1    2  505  501 +6.4573158543e+01 +2.6070802215e+01 +1.6720689378e+02 1.8112847612e+02 0.0000000000e+00 0.0000e+00 -1.0000e+00
<mgrwt>
<rscale>  4 0.25773375E+03</rscale>
<asrwt>0</asrwt>
<pdfrwt beam="1">  1       21 0.18425190E+00 0.25773375E+03</pdfrwt>
<pdfrwt beam="2">  1       21 0.10774651E+00 0.25773375E+03</pdfrwt>
<totfact> 0.10800342E+02</totfact>
</mgrwt>
</event>
<event>
 6      1 +2.5168323e+02 1.82897500e+02 7.54677100e-03 1.07240600e-01
       21 -1    0    0  505  502 +0.0000000000e+00 +0.0000000000e+00 +2.8517072725e+02 2.8517072725e+02 0.0000000000e+00 0.0000e+00 -1.0000e+00
       21 -1    0    0  504  503 -0.0000000000e+00 -0.0000000000e+00 -1.2153603183e+03 1.2153603183e+03 0.0000000000e+00 0.0000e+00 -1.0000e+00
        6  1    1    2  501    0 +4.0572896622e+00 -1.5329464807e+02 -1.3091999802e+02 2.6567791893e+02 1.7300000000e+02 0.0000e+00 1.0000e+00
       -6  1    1    2    0  502 -1.9220540850e+01 +5.0252445802e+01 +1.6031588100e+02 2.4191924107e+02 1.7300000000e+02 0.0000e+00 -1.0000e+00
       21  1    1    2  504  501 +2.6341071743e+01 -2.9738649032e+01 -2.0998282959e+01 4.4935144309e+01 0.0000000000e+00 0.0000e+00 -1.0000e+00
       21  1    1    2  505  503 -1.1177820555e+01 +1.3278085130e+02 -9.3858719107e+02 9.4799874124e+02 0.0000000000e+00 0.0000e+00 -1.0000e+00
<mgrwt>
<rscale>  4 0.18289753E+03</rscale>
<asrwt>0</asrwt>
<pdfrwt beam="1">  1       21 0.43872419E-01 0.18289753E+03</pdfrwt>
<pdfrwt beam="2">  1       21 0.18697851E+00 0.18289753E+03</pdfrwt>
<totfact> 0.82450850E+02</totfact>
</mgrwt>
</event>
<event>
 6      1 +2.5168323e+02 2.26149000e+02 7.54677100e-03 1.07064900e-01
       21 -1    0    0  505  502 +0.0000000000e+00 +0.0000000000e+00 +1.0809114453e+03 1.0809114453e+03 0.0000000000e+00 0.0000e+00 1.0000e+00
       21 -1    0    0  504  503 -0.0000000000e+00 -0.0000000000e+00 -2.0929932320e+03 2.0929932320e+03 0.0000000000e+00 0.0000e+00 1.0000e+00
        6  1    1    2  501    0 -1.8480467620e+01 +1.3994953872e+02 -1.6103904964e+02 2.7529979401e+02 1.7300000000e+02 0.0000e+00 -1.0000e+00
       -6  1    1    2    0  503 -8.0316583477e+01 +1.1948426681e+02 -1.8186447397e+03 1.8325187401e+03 1.7300000000e+02 0.0000e+00 1.0000e+00
       21  1    1    2  504  502 +2.9225493486e+01 -2.6111417291e+02 +3.1682110953e+02 4.1159489332e+02 0.0000000000e+00 0.0000e+00 1.0000e+00
       21  1    1    2  505  501 +6.9571557610e+01 +1.6803673767e+00 +6.5078089309e+02 6.5449124980e+02 0.0000000000e+00 0.0000e+00 1.0000e+00
<mgrwt>
<rscale>  4 0.22531979E+03</rscale>
<asrwt>0</asrwt>
<pdfrwt beam="1">  1       21 0.16629407E+00 0.22614898E+03</pdfrwt>
<pdfrwt beam="2">  1       21 0.32199896E+00 0.22614898E+03</pdfrwt>
<totfact> 0.54032997E+00</totfact>
</mgrwt>
</event>
<event>
 6      1 +2.5168323e+02 1.89956000e+02 7.54677100e-03 1.06249800e-01
       21 -1    0    0  505  502 +0.0000000000e+00 +0.0000000000e+00 +5.0292556077e+02 5.0292556077e+02 0.0000000000e+00 0.0000e+00 1.0000e+00
       21 -1    0    0  501  503 -0.0000000000e+00 -0.0000000000e+00 -2.8101719271e+02 2.8101719271e+02 0.0000000000e+00 0.0000e+00 1.0000e+00
        6  1    1    2  501    0 +7.8643025663e+01 +3.7902343742e+01 -1.6952241730e+02 2.5746487744e+02 1.7300000000e+02 0.0000e+00 1.0000e+00
       -6  1    1    2    0  502 -2.9920683545e+01 -5.3259702260e+01 +6.7052076182e+01 1.9533771809e+02 1.7300000000e+02 0.0000e+00 -1.0000e+00
       21  1    1    2  504  503 -2.1992752249e+01 -1.4262665919e+01 +1.4819955877e+02 1.5049988044e+02 0.0000000000e+00 0.0000e+00 1.0000e+00
       21  1    1    2  505  504 -2.6729589869e+01 +2.9620024437e+01 +1.7617915040e+02 1.8064027751e+02 0.0000000000e+00 0.0000e+00 1.0000e+00
<mgrwt>
<rscale>  4 0.18995604E+03</rscale>
<asrwt>0</asrwt>
<pdfrwt beam="1">  1       21 0.77373163E-01 0.18995604E+03</pdfrwt>
<pdfrwt beam="2">  1       21 0.43233414E-01 0.18995604E+03</pdfrwt>
<totfact> 0.76421549E+03</totfact>
</mgrwt>
</event>
<event>
 6      1 +2.5168323e+02 4.33446700e+02 7.54677100e-03 1.11471900e-01
       21 -1    0    0  503  502 +0.0000000000e+00 +0.0000000000e+00 +4.1174942168e+02 4.1174942168e+02 0.0000000000e+00 0.0000e+00 -1.0000e+00
       21 -1    0    0  501  503 -0.0000000000e+00 -0.0000000000e+00 -1.1081478469e+03 1.1081478469e+03 0.0000000000e+00 0.0000e+00 1.0000e+00
        6  1    1    2  501    0 +2.1577934882e+02 +3.6336183929e+02 -7.2247887207e+02 8.5469133271e+02 1.7300000000e+02 0.0000e+00 1.0000e+00
       -6  1    1    2    0  504 -2.0302462907e+02 -2.8599819287e+02 -1.8185067670e+02 4.3129182110e+02 1.7300000000e+02 0.0000e+00 -1.0000e+00
       21  1    1    2  504  505 -4.2801267662e+00 -5.3038487425e+01 +4.7188783810e+01 7.1120896724e+01 0.0000000000e+00 0.0000e+00 -1.0000e+00
       21  1    1    2  505  502 -8.4745929849e+00 -2.4325158995e+01 +1.6074233969e+02 1.6279321809e+02 0.0000000000e+00 0.0000e+00 -1.0000e+00
<mgrwt>
<rscale>  4 0.43344673E+03</rscale>
<asrwt>0</asrwt>
<pdfrwt beam="1">  1       21 0.63346066E-01 0.43344673E+03</pdfrwt>
<pdfrwt beam="2">  1       21 0.17048428E+00 0.43344673E+03</pdfrwt>
<totfact> 0.40632214E+02</totfact>
</mgrwt>
</event>
<event>
 6      1 +2.5168323e+02 1.79092700e+02 7.54677100e-03 1.07064900e-01
       21 -1    0    0  505  502 +0.0000000000e+00 +0.0000000000e+00 +1.8040595301e+03 1.8040595301e+03 0.0000000000e+00 0.0000e+00 -1.0000e+00
       21 -1    0    0  504  503 -0.0000000000e+00 -0.0000000000e+00 -1.3851096209e+02 1.3851096209e+02 0.0000000000e+00 0.0000e+00 1.0000e+00
        6  1    1    2  501    0 +5.7288425090e+01 -3.8076478608e+01 +2.2720764506e+02 2.9374154600e+02 1.7300000000e+02 0.0000e+00 1.0000e+00
       -6  1    1    2    0  503 -6.3768458712e+00 +4.3085217284e+01 +1.2992975262e+01 1.7887095214e+02 1.7300000000e+02 0.0000e+00 1.0000e+00
       21  1    1    2  504  502 -9.1759373093e+01 +1.4884126079e+02 +4.7064873803e+02 5.0207941411e+02 0.0000000000e+00 0.0000e+00 -1.0000e+00
       21  1    1    2  505  501 +4.0847793874e+01 -1.5384999946e+02 +9.5469920966e+02 9.6787857995e+02 0.0000000000e+00 0.0000e+00 -1.0000e+00
<mgrwt>
<rscale>  4 0.17909273E+03</rscale>
<asrwt>0</asrwt>
<pdfrwt beam="1">  1       21 0.27754760E+00 0.17909273E+03</pdfrwt>
<pdfrwt beam="2">  1       21 0.21309380E-01 0.17909273E+03</pdfrwt>
<totfact> 0.95985654E+02</totfact>
</mgrwt>
</event>
<event>
 6      1 +2.5168323e+02 4.34372400e+02 7.54677100e-03 1.17132900e-01
       21 -1    0    0  505  502 +0.0000000000e+00 +0.0000000000e+00 +5.3321308028e+02 5.3321308028e+02 0.0000000000e+00 0.0000e+00 -1.0000e+00
       21 -1    0    0  504  503 -0.0000000000e+00 -0.0000000000e+00 -5.4438994925e+02 5.4438994925e+02 0.0000000000e+00 0.0000e+00 1.0000e+00
        6  1    1    2  501    0 +2.9261274376e+02 +3.2575305033e+02 -1.0259862650e+01 4.7092624942e+02 1.7300000000e+02 0.0000e+00 -1.0000e+00
       -6  1    1    2    0  502 -3.2390190704e+02 -1.9467239837e+02 -9.9174893853e+01 4.2728731275e+02 1.7300000000e+02 0.0000e+00 1.0000e+00
       21  1    1    2  504  501 +3.2201654893e+01 -9.0762669839e+01 +3.1372749939e+01 1.0128700930e+02 0.0000000000e+00 0.0000e+00 1.0000e+00
       21  1    1    2  505  503 -9.1249162051e-01 -4.0317982122e+01 +6.6885137596e+01 7.8102458057e+01 0.0000000000e+00 0.0000e+00 1.0000e+00
<mgrwt>
<rscale>  4 0.43437235E+03</rscale>
<asrwt>0</asrwt>
<pdfrwt beam="1">  1       21 0.82032781E-01 0.43437235E+03</pdfrwt>
<pdfrwt beam="2">  1       21 0.83752300E-01 0.43437235E+03</pdfrwt>
<totfact> 0.13881221E+03</totfact>
</mgrwt>
</event>
<event>
 6      1 +2.5168323e+02 1.80211400e+02 7.54677100e-03 1.16820100e-01
       21 -1    0    0  504  502 +0.0000000000e+00 +0.0000000000e+00 +5.4344886104e+02 5.4344886104e+02 0.0000000000e+00 0.0000e+00 -1.0000e+00
       21 -1    0    0  501  503 -0.0000000000e+00 -0.0000000000e+00 -5.0192804994e+02 5.0192804994e+02 0.0000000000e+00 0.0000e+00 -1.0000e+00
        6  1    1    2  501    0 +4.0060753369e+01 +7.0054434160e+01 -8.3744532467e+01 2.0845775213e+02 1.7300000000e+02 0.0000e+00 -1.0000e+00
       -6  1    1    2    0  505 -3.5761485864e+01 -3.6345735633e+01 +1.7892700131e+02 2.5405465587e+02 1.7300000000e+02 0.0000e+00 -1.0000e+00
       21  1    1    2  504  503 +7.2132682898e-01 -5.4256472133e+01 -3.1552074081e+02 3.2015249954e+02 0.0000000000e+00 0.0000e+00 -1.0000e+00
       21  1    1    2  505  502 -5.0205943338e+00 +2.0547773606e+01 +2.6185908306e+02 2.6271200344e+02 0.0000000000e+00 0.0000e+00 1.0000e+00
<mgrwt>
<rscale>  4 0.18021145E+03</rscale>
<asrwt>0</asrwt>
<pdfrwt beam="1">  1       21 0.83607517E-01 0.18021145E+03</pdfrwt>
<pdfrwt beam="2">  1       21 0.77219700E-01 0.18021145E+03</pdfrwt>
<totfact> 0.18750774E+03</totfact>
</mgrwt>
</event>
<event>
 6      1 +2.5168323e+02 1.94043500e+02 7.54677100e-03 1.15942100e-01
       21 -1    0    0  504  502 +0.0000000000e+00 +0.0000000000e+00 +5.4772198328e+02 5.4772198328e+02 0.0000000000e+00 0.0000e+00 -1.0000e+00
       21 -1    0    0  501  503 -0.0000000000e+00 -0.0000000000e+00 -1.2351459339e+03 1.2351459339e+03 0.0000000000e+00 0.0000e+00 -1.0000e+00
        6  1    1    2  501    0 +1.3194056962e+00 +4.4153420523e+01 -1.1326571125e+02 2.1144594278e+02 1.7300000000e+02 0.0000e+00 -1.0000e+00
       -6  1    1    2    0  502 +3.3635762894e+01 -8.7248945394e+01 +4.7819756792e+02 5.1705479109e+02 1.7300000000e+02 0.0000e+00 -1.0000e+00
       21  1    1    2  504  505 -1.8777614882e+01 +9.8025724380e+00 -1.8267449997e+02 1.8389851056e+02 0.0000000000e+00 0.0000e+00 1.0000e+00
       21  1    1    2  505  503 -1.6177553708e+01 +3.3292952433e+01 -8.6968130738e+02 8.7046867280e+02 0.0000000000e+00 0.0000e+00 -1.0000e+00
<mgrwt>
<rscale>  4 0.19404347E+03</rscale>
<asrwt>0</asrwt>
<pdfrwt beam="1">  1       21 0.84264921E-01 0.19404347E+03</pdfrwt>
<pdfrwt beam="2">  1       21 0.19002245E+00 0.19404347E+03</pdfrwt>
<totfact> 0.19022673E+02</totfact>
</mgrwt>
</event>
<event>
 6      1 +2.5168323e+02 1.84651400e+02 7.54677100e-03 1.11910500e-01
       21 -1    0    0  501  502 +0.0000000000e+00 +0.0000000000e+00 +2.4120616098e+02 2.4120616098e+02 0.0000000000e+00 0.0000e+00 -1.0000e+00
       21 -1    0    0  505  503 -0.0000000000e+00 -0.0000000000e+00 -1.2116449036e+03 1.2116449036e+03 0.0000000000e+00 0.0000e+00 1.0000e+00
        6  1    1    2  501    0 -7.1347209878e+01 +3.5763176823e+01 +8.9501167678e+01 2.1049676527e+02 1.7300000000e+02 0.0000e+00 -1.0000e+00
       -6  1    1    2    0  504 +1.2571506008e+01 -5.4301405858e+01 -2.4389981079e+00 1.8177357936e+02 1.7300000000e+02 0.0000e+00 1.0000e+00
       21  1    1    2  504  503 +3.9541068230e+01 +9.1303513643e+00 -2.9488588476e+02 2.9766515487e+02 0.0000000000e+00 0.0000e+00 1.0000e+00
       21  1    1    2  505  502 +1.9234635640e+01 +9.4078776710e+00 -7.6261502739e+02 7.6291556503e+02 0.0000000000e+00 0.0000e+00 1.0000e+00
<mgrwt>
<rscale>  4 0.18465139E+03</rscale>
<asrwt>0</asrwt>
<pdfrwt beam="1">  1       21 0.37108640E-01 0.18465139E+03</pdfrwt>
<pdfrwt beam="2">  1       21 0.18640691E+00 0.18465139E+03</pdfrwt>
<totfact> 0.11641694E+03</totfact>
</mgrwt>
</event>
<event>
 6      1 +2.5168323e+02 3.24202100e+02 7.54677100e-03 1.12989000e-01
       21 -1    0    0  501  502 +0.0000000000e+00 +0.0000000000e+00 +2.5987784530e+02 2.5987784530e+02 0.0000000000e+00 0.0000e+00 -1.0000e+00
       21 -1    0    0  502  503 -0.0000000000e+00 -0.0000000000e+00 -1.1597588490e+03 1.1597588490e+03 0.0000000000e+00 0.0000e+00 -1.0000e+00
        6  1    1    2  501    0 +2.3067803367e+02 +1.7158780257e+02 -2.1587996368e+01 3.3622874772e+02 1.7300000000e+02 0.0000e+00 -1.0000e+00
       -6  1    1    2    0  505 -1.3275022985e+02 -2.3288456452e+02 -1.7864532832e+02 3.6565146964e+02 1.7300000000e+02 0.0000e+00 -1.0000e+00
       21  1    1    2  504  503 +1.8344232340e+01 -9.5693504017e+00 -5.2319959206e+01 5.6262433813e+01 0.0000000000e+00 0.0000e+00 -1.0000e+00
       21  1    1    2  505  504 -1.1627203616e+02 +7.0866112353e+01 -6.4732771978e+02 6.6149404311e+02 0.0000000000e+00 0.0000e+00 -1.0000e+00
<mgrwt>
<rscale>  4 0.32420213E+03</rscale>
<asrwt>0</asrwt>
<pdfrwt beam="1">  1       21 0.39981207E-01 0.32420213E+03</pdfrwt>
<pdfrwt beam="2">  1       21 0.17842444E+00 0.32420213E+03</pdfrwt>
<totfact> 0.10080540E+03</totfact>
</mgrwt>
</event>
<event>
 6      1 +2.5168323e+02 1.75633100e+02 7.54677100e-03 1.15942100e-01
       21 -1    0    0  504  502 +0.0000000000e+00 +0.0000000000e+00 +2.2206262363e+03 2.2206262363e+03 0.0000000000e+00 0.0000e+00 -1.0000e+00
       21 -1    0    0  501  503 -0.0000000000e+00 -0.0000000000e+00 -1.0187995097e+02 1.0187995097e+02 0.0000000000e+00 0.0000e+00 1.0000e+00
        6  1    1    2  501    0 +8.3632983681e+01 +6.3891601066e+01 +8.8651769713e+02 9.0935099933e+02 1.7300000000e+02 0.0000e+00 -1.0000e+00
       -6  1    1    2    0  502 +2.8321761957e+01 -9.6532802781e+00 +1.2678820060e+03 1.2799801128e+03 1.7300000000e+02 0.0000e+00 1.0000e+00
       21  1    1    2  504  505 -1.2175917492e+01 -1.7547514243e+01 -1.1079718536e+01 2.4060930691e+01 0.0000000000e+00 0.0000e+00 1.0000e+00
       21  1    1    2  505  503 -9.9778828146e+01 -3.6690806545e+01 -2.4573699239e+01 1.0911414448e+02 0.0000000000e+00 0.0000e+00 1.0000e+00
<mgrwt>
<rscale>  4 0.17563309E+03</rscale>
<asrwt>0</asrwt>
<pdfrwt beam="1">  1       21 0.34163477E+00 0.17563309E+03</pdfrwt>
<pdfrwt beam="2">  1       21 0.15673840E-01 0.17563309E+03</pdfrwt>
<totfact> 0.72821436E+02</totfact>
</mgrwt>
</event>
<event>
 6      1 +2.5168323e+02 1.77920000e+02 7.54677100e-03 1.17132900e-01
       21 -1    0    0  503  502 +0.0000000000e+00 +0.0000000000e+00 +2.6127653190e+02 2.6127653190e+02 0.0000000000e+00 0.0000e+00 1.0000e+00
       21 -1    0    0  504  503 -0.0000000000e+00 -0.0000000000e+00 -3.1836628422e+02 3.1836628422e+02 0.0000000000e+00 0.0000e+00 1.0000e+00
        6  1    1    2  501    0 +3.6164464695e+01 +4.7917204616e+00 -2.8066744158e+00 1.7682676979e+02 1.7300000000e+02 0.0000e+00 1.0000e+00
       -6  1    1    2    0  505 -5.5911295974e+01 +6.1424845271e+00 +3.5583553741e+01 1.8536178795e+02 1.7300000000e+02 0.0000e+00 1.0000e+00
       21  1    1    2  504  501 -2.7182255513e+01 -1.7802893147e+01 -1.4275955610e+02 1.4641075396e+02 0.0000000000e+00 0.0000e+00 1.0000e+00
       21  1    1    2  505  502 +4.6929086791e+01 +6.8686881587e+00 +5.2892924454e+01 7.1043504427e+01 0.0000000000e+00 0.0000e+00 -1.0000e+00
<mgrwt>
<rscale>  4 0.17792001E+03</rscale>
<asrwt>0</asrwt>
<pdfrwt beam="1">  1       21 0.40196390E-01 0.17792001E+03</pdfrwt>
<pdfrwt beam="2">  1       21 0.48979428E-01 0.17792001E+03</pdfrwt>
<totfact> 0.23924493E+04</totfact>
</mgrwt>
</event>
<event>
 6      1 +2.5168323e+02 1.89197600e+02 7.54677100e-03 1.15942100e-01
       21 -1    0    0  504  502 +0.0000000000e+00 +0.0000000000e+00 +1.1171901864e+03 1.1171901864e+03 0.0000000000e+00 0.0000e+00 1.0000e+00
       21 -1    0    0  501  503 -0.0000000000e+00 -0.0000000000e+00 -1.0570266122e+02 1.0570266122e+02 0.0000000000e+00 0.0000e+00 -1.0000e+00
        6  1    1    2  501    0 +4.5878355330e+00 -5.7732883006e+01 +6.3224082698e+02 6.5803616718e+02 1.7300000000e+02 0.0000e+00 1.0000e+00
       -6  1    1    2    0  502 +9.0577887482e+01 +1.0557674083e+02 +3.9686066373e+02 4.5472869749e+02 1.7300000000e+02 0.0000e+00 1.0000e+00
       21  1    1    2  504  505 -7.7204548520e+01 -2.8459039972e+01 -1.3498591987e+01 8.3382679580e+01 0.0000000000e+00 0.0000e+00 -1.0000e+00
       21  1    1    2  505  503 -1.7961174495e+01 -1.9384817851e+01 -4.1153735467e+00 2.6745303360e+01 0.0000000000e+00 0.0000e+00 -1.0000e+00
<mgrwt>
<rscale>  4 0.18919758E+03</rscale>
<asrwt>0</asrwt>
<pdfrwt beam="1">  1       21 0.17187540E+00 0.18919758E+03</pdfrwt>
<pdfrwt beam="2">  1       21 0.16261949E-01 0.18919758E+03</pdfrwt>
<totfact> 0.70273403E+03</totfact>
</mgrwt>
</event>
<event>
 6      1 +2.5168323e+02 1.87187600e+02 7.54677100e-03 1.17132900e-01
       21 -1    0    0  505  502 +0.0000000000e+00 +0.0000000000e+00 +1.1068023121e+02 1.1068023121e+02 0.0000000000e+00 0.0000e+00 1.0000e+00
       21 -1    0    0  504  503 -0.0000000000e+00 -0.0000000000e+00 -4.7219730675e+02 4.7219730675e+02 0.0000000000e+00 0.0000e+00 -1.0000e+00
        6  1    1    2  501    0 -1.7238079811e+00 +7.3687958170e+01 -2.0606128710e+02 2.7896799231e+02 1.7300000000e+02 0.0000e+00 -1.0000e+00
       -6  1    1    2    0  502 -8.7612318018e+00 -6.0814054901e+01 -6.1549074824e+01 1.9362953563e+02 1.7300000000e+02 0.0000e+00 1.0000e+00
       21  1    1    2  504  501 +2.1183937439e+01 +7.7327581563e+00 -8.0216073408e+01 8.3325705440e+01 0.0000000000e+00 0.0000e+00 -1.0000e+00
       21  1    1    2  505  503 -1.0698897656e+01 -2.0606661426e+01 -1.3690640212e+01 2.6954304584e+01 0.0000000000e+00 0.0000e+00 -1.0000e+00
<mgrwt>
<rscale>  4 0.18718760E+03</rscale>
<asrwt>0</asrwt>
<pdfrwt beam="1">  1       21 0.17027728E-01 0.18718760E+03</pdfrwt>
<pdfrwt beam="2">  1       21 0.72645739E-01 0.18718760E+03</pdfrwt>
<totfact> 0.53227423E+04</totfact>
</mgrwt>
</event>
<event>
 6      1 +2.5168323e+02 1.76730200e+02 7.54677100e-03 1.17132900e-01
       21 -1    0    0  503  502 +0.0000000000e+00 +0.0000000000e+00 +3.4983726884e+02 3.4983726884e+02 0.0000000000e+00 0.0000e+00 -1.0000e+00
       21 -1    0    0  504  503 -0.0000000000e+00 -0.0000000000e+00 -6.2646607870e+02 6.2646607870e+02 0.0000000000e+00 0.0000e+00 -1.0000e+00
        6  1    1    2  501    0 +1.5343383999e+00 -6.4453484424e+00 -1.7125050407e+02 2.4351515734e+02 1.7300000000e+02 0.0000e+00 -1.0000e+00
       -6  1    1    2    0  505 +3.2309054472e+01 -7.0147445032e+01 -2.3361945733e+02 3.0078495622e+02 1.7300000000e+02 0.0000e+00 -1.0000e+00
       21  1    1    2  504  501 -4.3997841243e+01 -3.7177284440e+00 -1.4262296578e+02 1.4930151341e+02 0.0000000000e+00 0.0000e+00 -1.0000e+00
       21  1    1    2  505  502 +1.0154448371e+01 +8.0310521918e+01 +2.7086411733e+02 2.8270172056e+02 0.0000000000e+00 0.0000e+00 -1.0000e+00
<mgrwt>
<rscale>  4 0.17673023E+03</rscale>
<asrwt>0</asrwt>
<pdfrwt beam="1">  1       21 0.53821119E-01 0.17673023E+03</pdfrwt>
<pdfrwt beam="2">  1       21 0.96379396E-01 0.17673023E+03</pdfrwt>
<totfact> 0.29656326E+03</totfact>
</mgrwt>
</event>
<event>
 6      1 +2.5168323e+02 2.46566100e+02 7.54677100e-03 1.04003000e-01
       21 -1    0    0  504  502 +0.0000000000e+00 +0.0000000000e+00 +2.3525605048e+02 2.3525605048e+02 0.0000000000e+00 0.0000e+00 1.0000e+00
       21 -1    0    0  505  503 -0.0000000000e+00 -0.0000000000e+00 -9.5966536154e+02 9.5966536154e+02 0.0000000000e+00 0.0000e+00 -1.0000e+00
        6  1    1    2  501    0 +9.2065176542e+01 +1.1777336640e+02 -3.8977416162e+02 4.5188434321e+02 1.7300000000e+02 0.0000e+00 -1.0000e+00
       -6  1    1    2    0  503 -1.3629262291e+02 -1.1919537627e+02 +1.1817613208e+02 2.7690759285e+02 1.7300000000e+02 0.0000e+00 1.0000e+00
       21  1    1    2  504  501 +2.0500659572e+01 +2.2371478135e+00 -4.3726596110e+02 4.3775198756e+02 0.0000000000e+00 0.0000e+00 -1.0000e+00
       21  1    1    2  505  502 +2.3726786797e+01 -8.1513794440e-01 -1.5545320405e+01 2.8377488404e+01 0.0000000000e+00 0.0000e+00 1.0000e+00
<mgrwt>
<rscale>  4 0.24656611E+03</rscale>
<asrwt>0</asrwt>
<pdfrwt beam="1">  1       21 0.36193239E-01 0.24656611E+03</pdfrwt>
<pdfrwt beam="2">  1       21 0.14764082E+00 0.24656611E+03</pdfrwt>
<totfact> 0.21912139E+03</totfact>
</mgrwt>
</event>
<event>
 6      1 +2.5168323e+02 1.84662200e+02 7.54677100e-03 1.03924000e-01
       21 -1    0    0  501  502 +0.0000000000e+00 +0.0000000000e+00 +4.2344597970e+02 4.2344597970e+02 0.0000000000e+00 0.0000e+00 -1.0000e+00
       21 -1    0    0  502  503 -0.0000000000e+00 -0.0000000000e+00 -1.3645198643e+02 1.3645198643e+02 0.0000000000e+00 0.0000e+00 -1.0000e+00
        6  1    1    2  501    0 -9.5134163097e+01 -3.6505679807e+01 +1.5953751906e+02 2.5644569334e+02 1.7300000000e+02 0.0000e+00 -1.0000e+00
       -6  1    1    2    0  505 +4.8950759202e+01 -1.2105606685e+01 +2.7740809117e+01 1.8232189948e+02 1.7300000000e+02 0.0000e+00 -1.0000e+00
       21  1    1    2  504  503 +3.6862610237e+01 +2.8597640418e+01 +6.9540515268e+01 8.3741031368e+01 0.0000000000e+00 0.0000e+00 -1.0000e+00
       21  1    1    2  505  504 +9.3207936587e+00 +2.0013646074e+01 +3.0175149830e+01 3.7389341942e+01 0.0000000000e+00 0.0000e+00 1.0000e+00
<mgrwt>
<rscale>  4 0.18466216E+03</rscale>
<asrwt>0</asrwt>
<pdfrwt beam="1">  1       21 0.65145535E-01 0.18466216E+03</pdfrwt>
<pdfrwt beam="2">  1       21 0.20992613E-01 0.18466216E+03</pdfrwt>
<totfact> 0.45902176E+04</totfact>
</mgrwt>
</event>
<event>
 6      1 +2.5168323e+02 1.86432400e+02 7.54677100e-03 1.17132900e-01
       21 -1    0    0  505  502 +0.0000000000e+00 +0.0000000000e+00 +1.2026252845e+03 1.2026252845e+03 0.0000000000e+00 0.0000e+00 -1.0000e+00
       21 -1    0    0  504  503 -0.0000000000e+00 -0.0000000000e+00 -1.1332840773e+02 1.1332840773e+02 0.0000000000e+00 0.0000e+00 -1.0000e+00
        6  1    1    2  501    0 -4.6685837704e+01 +9.3135726011e+01 +1.1111120575e+02 2.3049627100e+02 1.7300000000e+02 0.0000e+00 -1.0000e+00
       -6  1    1    2    0  502 +5.0797524991e+01 -3.6942847188e+00 +9.2525609261e+02 9.4266742449e+02 1.7300000000e+02 0.0000e+00 -1.0000e+00
       21  1    1    2  504  501 -2.1653359303e+01 -6.9109706867e+01 -1.1183085796e+01 7.3280836242e+01 0.0000000000e+00 0.0000e+00 -1.0000e+00
       21  1    1    2  505  503 +1.7541672016e+01 -2.0331734425e+01 +6.4112664224e+01 6.9509160517e+01 0.0000000000e+00 0.0000e+00 1.0000e+00
<mgrwt>
<rscale>  4 0.18643239E+03</rscale>
<asrwt>0</asrwt>
<pdfrwt beam="1">  1       21 0.18501927E+00 0.18643239E+03</pdfrwt>
<pdfrwt beam="2">  1       21 0.17435141E-01 0.18643239E+03</pdfrwt>
<totfact> 0.50402861E+03</totfact>
</mgrwt>
</event>
<event>
 6      1 +2.5168323e+02 1.85045300e+02 7.54677100e-03 1.06249800e-01
       21 -1    0    0  504  502 +0.0000000000e+00 +0.0000000000e+00 +3.6545761149e+02 3.6545761149e+02 0.0000000000e+00 0.0000e+00 -1.0000e+00
       21 -1    0    0  501  503 -0.0000000000e+00 -0.0000000000e+00 -1.9627659501e+02 1.9627659501e+02 0.0000000000e+00 0.0000e+00 -1.0000e+00
        6  1    1    2  501    0 +4.3785904579e+01 -7.3208333906e+01 +6.5044057432e+01 2.0355931568e+02 1.7300000000e+02 0.0000e+00 -1.0000e+00
       -6  1    1    2    0  505 -6.4846079731e+01 +8.5802505179e+00 -2.8724549320e+01 1.8717033549e+02 1.7300000000e+02 0.0000e+00 -1.0000e+00
       21  1    1    2  504  503 -1.9956877648e+01 +4.5273330912e+01 +1.0911832813e+02 1.1981135586e+02 0.0000000000e+00 0.0000e+00 1.0000e+00
       21  1    1    2  505  502 +4.1017052800e+01 +1.9354752476e+01 +2.3743180234e+01 5.1193199465e+01 0.0000000000e+00 0.0000e+00 1.0000e+00
<mgrwt>
<rscale>  4 0.18504528E+03</rscale>
<asrwt>0</asrwt>
<pdfrwt beam="1">  1       21 0.56224248E-01 0.18504528E+03</pdfrwt>
<pdfrwt beam="2">  1       21 0.30196399E-01 0.18504528E+03</pdfrwt>
<totfact> 0.31449334E+04</totfact>
</mgrwt>
</event>
<event>
 6      1 +2.5168323e+02 2.35282600e+02 7.54677100e-03 1.16820100e-01
       21 -1    0    0  501  502 +0.0000000000e+00 +0.0000000000e+00 +1.9307241113e+02 1.9307241113e+02 0.0000000000e+00 0.0000e+00 1.0000e+00
       21 -1    0    0  504  503 -0.0000000000e+00 -0.0000000000e+00 -1.4351958001e+03 1.4351958001e+03 0.0000000000e+00 0.0000e+00 1.0000e+00
        6  1    1    2  501    0 -2.7652150740e+00 +1.2260963510e+02 +1.9158917929e+01 2.1292447762e+02 1.7300000000e+02 0.0000e+00 1.0000e+00
       -6  1    1    2    0  503 -3.5125341974e+01 -1.5768242074e+02 -3.0328434116e+02 3.8471798379e+02 1.7300000000e+02 0.0000e+00 -1.0000e+00
       21  1    1    2  504  505 +1.0354260391e+02 -2.6913248590e+01 -9.2994302552e+02 9.3607661251e+02 0.0000000000e+00 0.0000e+00 1.0000e+00
       21  1    1    2  505  502 -6.5652046865e+01 +6.1986034222e+01 -2.8054940216e+01 9.4549137314e+01 0.0000000000e+00 0.0000e+00 -1.0000e+00
<mgrwt>
<rscale>  4 0.23528256E+03</rscale>
<asrwt>0</asrwt>
<pdfrwt beam="1">  1       21 0.29703450E-01 0.23528256E+03</pdfrwt>
<pdfrwt beam="2">  1       21 0.22079934E+00 0.23528256E+03</pdfrwt>
<totfact> 0.10323800E+03</totfact>
</mgrwt>
</event>
<event>
 6      1 +2.5168323e+02 1.94580100e+02 7.54677100e-03 1.12068800e-01
       21 -1    0    0  504  502 +0.0000000000e+00 +0.0000000000e+00 +5.7795781648e+02 5.7795781648e+02 0.0000000000e+00 0.0000e+00 1.0000e+00
       21 -1    0    0  502  503 -0.0000000000e+00 -0.0000000000e+00 -2.6559999852e+02 2.6559999852e+02 0.0000000000e+00 0.0000e+00 1.0000e+00
        6  1    1    2  501    0 -1.3456898707e+02 +1.2197435745e+01 +1.2647274741e+02 2.5334155908e+02 1.7300000000e+02 0.0000e+00 1.0000e+00
       -6  1    1    2    0  505 +6.7034944583e+01 -2.9027671536e+01 +3.4079177941e+02 3.8910708863e+02 1.7300000000e+02 0.0000e+00 1.0000e+00
       21  1    1    2  504  501 +8.7707305029e+01 +3.3838538043e+01 -8.6341545866e+01 1.2764200153e+02 0.0000000000e+00 0.0000e+00 1.0000e+00
       21  1    1    2  505  503 -2.0173262544e+01 -1.7008302251e+01 -6.8565162995e+01 7.3467165752e+01 0.0000000000e+00 0.0000e+00 1.0000e+00
<mgrwt>
<rscale>  4 0.19458012E+03</rscale>
<asrwt>0</asrwt>
<pdfrwt beam="1">  1       21 0.88916587E-01 0.19458012E+03</pdfrwt>
<pdfrwt beam="2">  1       21 0.40861538E-01 0.19458012E+03</pdfrwt>
<totfact> 0.62243576E+03</totfact>
</mgrwt>
</event>
<event>
 6      1 +2.5168323e+02 1.93359800e+02 7.54677100e-03 1.17132900e-01
       21 -1    0    0  505  502 +0.0000000000e+00 +0.0000000000e+00 +2.6030759443e+03 2.6030759443e+03 0.0000000000e+00 0.0000e+00 1.0000e+00
       21 -1    0    0  504  503 -0.0000000000e+00 -0.0000000000e+00 -4.1987370171e+01 4.1987370171e+01 0.0000000000e+00 0.0000e+00 -1.0000e+00
        6  1    1    2  501    0 -1.2546242428e+02 +2.2006898919e+01 +7.0462541134e+02 7.3664855516e+02 1.7300000000e+02 0.0000e+00 -1.0000e+00
       -6  1    1    2    0  502 +5.0363961363e+01 +4.7178095285e+01 +4.7644056464e+02 5.1155343115e+02 1.7300000000e+02 0.0000e+00 -1.0000e+00
       21  1    1    2  504  501 +2.2511775979e+01 -5.4083287671e+00 +1.1511812280e+01 2.5856370584e+01 0.0000000000e+00 0.0000e+00 1.0000e+00
       21  1    1    2  505  503 +5.2586686939e+01 -6.3776665437e+01 +1.3685107858e+03 1.3710049576e+03 0.0000000000e+00 0.0000e+00 1.0000e+00
<mgrwt>
<rscale>  4 0.19335979E+03</rscale>
<asrwt>0</asrwt>
<pdfrwt beam="1">  1       21 0.40047310E+00 0.19335979E+03</pdfrwt>
<pdfrwt beam="2">  1       21 0.64595975E-02 0.19335979E+03</pdfrwt>
<totfact> 0.15015716E+03</totfact>
</mgrwt>
</event>
<event>
 6      1 +2.5168323e+02 1.91190400e+02 7.54677100e-03 1.11896800e-01
       21 -1    0    0  501  502 +0.0000000000e+00 +0.0000000000e+00 +2.5157579588e+03 2.5157579588e+03 0.0000000000e+00 0.0000e+00 1.0000e+00
       21 -1    0    0  504  503 -0.0000000000e+00 -0.0000000000e+00 -4.9996957256e+01 4.9996957256e+01 0.0000000000e+00 0.0000e+00 -1.0000e+00
        6  1    1    2  501    0 -1.3837989555e+01 -7.6384875409e+01 +1.3139258841e+03 1.3275377088e+03 1.7300000000e+02 0.0000e+00 1.0000e+00
       -6  1    1    2    0  505 +1.1443178117e+02 +3.9916490636e+01 +9.9669422155e+02 1.0188308643e+03 1.7300000000e+02 0.0000e+00 1.0000e+00
       21  1    1    2  504  502 +2.0447015416e+01 +6.9237956387e+00 +5.6462705883e+01 6.0448792718e+01 0.0000000000e+00 0.0000e+00 -1.0000e+00
       21  1    1    2  505  503 -1.2104080703e+02 +2.9544589134e+01 +9.8678189945e+01 1.5893755027e+02 0.0000000000e+00 0.0000e+00 -1.0000e+00
<mgrwt>
<rscale>  4 0.19119041E+03</rscale>
<asrwt>0</asrwt>
<pdfrwt beam="1">  1       21 0.38703959E+00 0.19119041E+03</pdfrwt>
<pdfrwt beam="2">  1       21 0.76918415E-02 0.19119041E+03</pdfrwt>
<totfact> 0.13487447E+03</totfact>
</mgrwt>
</event>
<event>
 6      1 +2.5168323e+02 1.81320300e+02 7.54677100e-03 1.11910500e-01
       21 -1    0    0  501  502 +0.0000000000e+00 +0.0000000000e+00 +2.9751559956e+03 2.9751559956e+03 0.0000000000e+00 0.0000e+00 1.0000e+00
       21 -1    0    0  504  503 -0.0000000000e+00 -0.0000000000e+00 -1.2539865100e+02 1.2539865100e+02 0.0000000000e+00 0.0000e+00 1.0000e+00
        6  1    1    2  501    0 +5.3961831345e+01 -7.4353011113e+01 +1.9798077199e+03 1.9894742665e+03 1.7300000000e+02 0.0000e+00 1.0000e+00
       -6  1    1    2    0  503 -3.0106267643e+01 -8.4652971816e+01 +8.1355674012e+02 8.3658596831e+02 1.7300000000e+02 0.0000e+00 1.0000e+00
       21  1    1    2  504  505 -3.6660096798e+01 -4.5628041114e+01 -9.1435813390e+00 5.9240914180e+01 0.0000000000e+00 0.0000e+00 -1.0000e+00
       21  1    1    2  505  502 +1.2804533097e+01 +2.0463402404e+02 +6.5536466001e+01 2.1525349762e+02 0.0000000000e+00 0.0000e+00 1.0000e+00
<mgrwt>
<rscale>  4 0.18132035E+03</rscale>
<asrwt>0</asrwt>
<pdfrwt beam="1">  1       21 0.45771626E+00 0.18132035E+03</pdfrwt>
<pdfrwt beam="2">  1       21 0.19292102E-01 0.18132035E+03</pdfrwt>
<totfact> 0.93322687E+01</totfact>
</mgrwt>
</event>
<event>
 6      1 +2.5168323e+02 2.93600800e+02 7.54677100e-03 1.15942100e-01
       21 -1    0    0  504  502 +0.0000000000e+00 +0.0000000000e+00 +2.4728905941e+03 2.4728905941e+03 0.0000000000e+00 0.0000e+00 -1.0000e+00
       21 -1    0    0  501  503 -0.0000000000e+00 -0.0000000000e+00 -2.8294977902e+02 2.8294977902e+02 0.0000000000e+00 0.0000e+00 1.0000e+00
        6  1    1    2  501    0 +4.4585906569e+01 -3.9538834382e+01 +1.9068602871e+03 1.9156190584e+03 1.7300000000e+02 0.0000e+00 -1.0000e+00
       -6  1    1    2    0  502 +1.2196979278e+02 +2.0881085225e+02 +4.5285848502e+02 5.4174570587e+02 1.7300000000e+02 0.0000e+00 -1.0000e+00
       21  1    1    2  504  505 -2.7663448063e+01 -6.1615643612e+01 -6.5769914190e+01 9.4273196132e+01 0.0000000000e+00 0.0000e+00 1.0000e+00
       21  1    1    2  505  503 -1.3889225129e+02 -1.0765637426e+02 -1.0400804283e+02 2.0420241272e+02 0.0000000000e+00 0.0000e+00 1.0000e+00
<mgrwt>
<rscale>  4 0.26086538E+03</rscale>
<asrwt>0</asrwt>
<pdfrwt beam="1">  1       21 0.38044469E+00 0.29360079E+03</pdfrwt>
<pdfrwt beam="2">  1       21 0.43530737E-01 0.29360079E+03</pdfrwt>
<totfact> 0.50131004E+01</totfact>
</mgrwt>
</event>
<event>
 6      1 +2.5168323e+02 2.58751300e+02 7.54677100e-03 1.11910500e-01
       21 -1    0    0  501  502 +0.0000000000e+00 +0.0000000000e+00 +9.8412761248e+02 9.8412761248e+02 0.0000000000e+00 0.0000e+00 -1.0000e+00
       21 -1    0    0  505  503 -0.0000000000e+00 -0.0000000000e+00 -3.6258469319e+02 3.6258469319e+02 0.0000000000e+00 0.0000e+00 1.0000e+00
        6  1    1    2  501    0 -2.5170207415e+02 +8.5621807919e+01 +3.4973749860e+02 4.7215500214e+02 1.7300000000e+02 0.0000e+00 1.0000e+00
       -6  1    1    2    0  504 +1.4687870290e+02 -6.9037662254e+01 +5.2752742375e+02 5.7840620241e+02 1.7300000000e+02 0.0000e+00 -1.0000e+00
       21  1    1    2  504  503 -1.2606117967e+01 -2.4189583836e+01 -8.1228056961e+01 8.5685748022e+01 0.0000000000e+00 0.0000e+00 -1.0000e+00
       21  1    1    2  505  502 +1.1742948921e+02 +7.6054381713e+00 -1.7449394610e+02 2.1046535309e+02 0.0000000000e+00 0.0000e+00 1.0000e+00
<mgrwt>
<rscale>  4 0.25875128E+03</rscale>
<asrwt>0</asrwt>
<pdfrwt beam="1">  1       21 0.15140425E+00 0.25875128E+03</pdfrwt>
<pdfrwt beam="2">  1       21 0.55782261E-01 0.25875128E+03</pdfrwt>
<totfact> 0.82988275E+02</totfact>
</mgrwt>
</event>
<event>
 6      1 +2.5168323e+02 3.30550700e+02 7.54677100e-03 1.09842800e-01
       21 -1    0    0  505  502 +0.0000000000e+00 +0.0000000000e+00 +2.1410889549e+03 2.1410889549e+03 0.0000000000e+00 0.0000e+00 1.0000e+00
       21 -1    0    0  502  503 -0.0000000000e+00 -0.0000000000e+00 -2.6499298022e+02 2.6499298022e+02 0.0000000000e+00 0.0000e+00 1.0000e+00
        6  1    1    2  501    0 -1.6173693152e+02 +7.6051384786e+00 +1.6275622397e+03 1.6447201942e+03 1.7300000000e+02 0.0000e+00 1.0000e+00
       -6  1    1    2    0  503 +2.8948273627e+02 +2.5297432239e+01 -1.1680494090e+02 3.5778849743e+02 1.7300000000e+02 0.0000e+00 1.0000e+00
       21  1    1    2  504  501 -1.0319435519e+02 -3.6242122887e+01 +1.4387555631e+02 1.8072836556e+02 0.0000000000e+00 0.0000e+00 1.0000e+00
       21  1    1    2  505  504 -2.4551449567e+01 +3.3395521698e+00 +2.2146311961e+02 2.2284487795e+02 0.0000000000e+00 0.0000e+00 -1.0000e+00
<mgrwt>
<rscale>  4 0.33055072E+03</rscale>
<asrwt>0</asrwt>
<pdfrwt beam="1">  1       21 0.32939829E+00 0.33055072E+03</pdfrwt>
<pdfrwt beam="2">  1       21 0.40768152E-01 0.33055072E+03</pdfrwt>
<totfact> 0.11262098E+02</totfact>
</mgrwt>
</event>
<event>
 6      1 +2.5168323e+02 2.34628000e+02 7.54677100e-03 1.11910500e-01
       21 -1    0    0  501  502 +0.0000000000e+00 +0.0000000000e+00 +9.1590152224e+02 9.1590152224e+02 0.0000000000e+00 0.0000e+00 1.0000e+00
       21 -1    0    0  505  503 -0.0000000000e+00 -0.0000000000e+00 -3.1877139744e+02 3.1877139744e+02 0.0000000000e+00 0.0000e+00 -1.0000e+00
        6  1    1    2  501    0 -6.1550490647e+01 +1.3599597590e+02 +4.2662071300e+02 4.8396033011e+02 1.7300000000e+02 0.0000e+00 1.0000e+00
       -6  1    1    2    0  504 +5.7967131780e+01 -1.5884380289e+02 +4.2216036749e+02 4.8655926460e+02 1.7300000000e+02 0.0000e+00 1.0000e+00
       21  1    1    2  504  503 +1.4978251189e+01 -2.0330820750e+01 -3.6292331092e+01 4.4213386854e+01 0.0000000000e+00 0.0000e+00 1.0000e+00
       21  1    1    2  505  502 -1.1394892322e+01 +4.3178647736e+01 -2.1535862460e+02 2.1993993812e+02 0.0000000000e+00 0.0000e+00 -1.0000e+00
<mgrwt>
<rscale>  4 0.23462799E+03</rscale>
<asrwt>0</asrwt>
<pdfrwt beam="1">  1       21 0.14090792E+00 0.23462799E+03</pdfrwt>
<pdfrwt beam="2">  1       21 0.49041754E-01 0.23462799E+03</pdfrwt>
<totfact> 0.13428185E+03</totfact>
</mgrwt>
</event>
<event>
 6      1 +2.5168323e+02 2.11592400e+02 7.54677100e-03 1.12989000e-01
       21 -1    0    0  501  502 +0.0000000000e+00 +0.0000000000e+00 +1.0684876022e+03 1.0684876022e+03 0.0000000000e+00 0.0000e+00 -1.0000e+00
       21 -1    0    0  502  503 -0.0000000000e+00 -0.0000000000e+00 -2.8147427296e+02 2.8147427296e+02 0.0000000000e+00 0.0000e+00 1.0000e+00
        6  1    1    2  501    0 -1.2967567925e+01 -1.1269503404e+02 +8.2452815455e+02 8.5008470529e+02 1.7300000000e+02 0.0000e+00 -1.0000e+00
       -6  1    1    2    0  504 -1.0363114324e+02 +1.8996408148e+02 +1.0589274628e+02 2.9659406571e+02 1.7300000000e+02 0.0000e+00 -1.0000e+00
       21  1    1    2  504  505 +8.4916175308e+01 -7.0978993257e+01 -9.9879991689e+01 1.4907980095e+02 0.0000000000e+00 0.0000e+00 1.0000e+00
       21  1    1    2  505  503 +3.1682535860e+01 -6.2900541843e+00 -4.3527579936e+01 5.4203303176e+01 0.0000000000e+00 0.0000e+00 1.0000e+00
<mgrwt>
<rscale>  4 0.21159237E+03</rscale>
<asrwt>0</asrwt>
<pdfrwt beam="1">  1       21 0.16438271E+00 0.21159237E+03</pdfrwt>
<pdfrwt beam="2">  1       21 0.43303735E-01 0.21159237E+03</pdfrwt>
<totfact> 0.11763810E+03</totfact>
</mgrwt>
</event>
<event>
 6      1 +2.5168323e+02 3.39223200e+02 7.54677100e-03 1.09842800e-01
       21 -1    0    0  503  502 +0.0000000000e+00 +0.0000000000e+00 +7.9294375503e+02 7.9294375503e+02 0.0000000000e+00 0.0000e+00 -1.0000e+00
       21 -1    0    0  501  503 -0.0000000000e+00 -0.0000000000e+00 -4.4252415361e+02 4.4252415361e+02 0.0000000000e+00 0.0000e+00 -1.0000e+00
        6  1    1    2  501    0 +3.0587918448e+01 -3.3753005365e+02 +5.1228026683e+01 3.8394722110e+02 1.7300000000e+02 0.0000e+00 -1.0000e+00
       -6  1    1    2    0  504 +5.2210984433e+01 +6.1471017414e+01 -1.9019749018e+02 2.6946012349e+02 1.7300000000e+02 0.0000e+00 -1.0000e+00
       21  1    1    2  504  505 -3.3508845551e+01 +1.2792216841e+01 +1.8574966506e+01 4.0391990822e+01 0.0000000000e+00 0.0000e+00 -1.0000e+00
       21  1    1    2  505  502 -4.9290057331e+01 +2.6326681940e+02 +4.7081409842e+02 5.4166857323e+02 0.0000000000e+00 0.0000e+00 -1.0000e+00
<mgrwt>
<rscale>  4 0.29370277E+03</rscale>
<asrwt>0</asrwt>
<pdfrwt beam="1">  1       21 0.12199135E+00 0.33922324E+03</pdfrwt>
<pdfrwt beam="2">  1       21 0.68080639E-01 0.33922324E+03</pdfrwt>
<totfact> 0.89176676E+02</totfact>
</mgrwt>
</event>
<event>
 6      1 +2.5168323e+02 2.73419200e+02 7.54677100e-03 1.03924000e-01
       21 -1    0    0  504  502 +0.0000000000e+00 +0.0000000000e+00 +6.6523700267e+02 6.6523700267e+02 0.0000000000e+00 0.0000e+00 -1.0000e+00
       21 -1    0    0  501  503 -0.0000000000e+00 -0.0000000000e+00 -6.2998919891e+02 6.2998919891e+02 0.0000000000e+00 0.0000e+00 1.0000e+00
        6  1    1    2  501    0 -6.5724191875e+01 -1.2742810139e+02 -1.7893954499e+02 2.8723849182e+02 1.7300000000e+02 0.0000e+00 -1.0000e+00
       -6  1    1    2    0  505 -7.2604896443e+01 -4.1129366338e+01 -3.5173279242e+02 4.0075934552e+02 1.7300000000e+02 0.0000e+00 1.0000e+00
       21  1    1    2  504  503 +1.9780940108e+01 +1.4615504520e+01 +4.5522305604e+01 5.1741461822e+01 0.0000000000e+00 0.0000e+00 -1.0000e+00
       21  1    1    2  505  502 +1.1854814821e+02 +1.5394196321e+02 +5.2039783557e+02 5.5548690241e+02 0.0000000000e+00 0.0000e+00 -1.0000e+00
<mgrwt>
<rscale>  4 0.25031591E+03</rscale>
<asrwt>0</asrwt>
<pdfrwt beam="1">  1       21 0.10234416E+00 0.27341922E+03</pdfrwt>
<pdfrwt beam="2">  1       21 0.96921414E-01 0.27341922E+03</pdfrwt>
<totfact> 0.63800359E+02</totfact>
</mgrwt>
</event>
<event>
 6      1 +2.5168323e+02 2.41324300e+02 7.54677100e-03 1.17132900e-01
       21 -1    0    0  503  502 +0.0000000000e+00 +0.0000000000e+00 +6.4680038057e+01 6.4680038057e+01 0.0000000000e+00 0.0000e+00 -1.0000e+00
       21 -1    0    0  504  503 -0.0000000000e+00 -0.0000000000e+00 -2.5159428930e+03 2.5159428930e+03 0.0000000000e+00 0.0000e+00 -1.0000e+00
        6  1    1    2  501    0 +5.1894436287e+01 -1.7781786811e+02 -1.8148750334e+03 1.8324880937e+03 1.7300000000e+02 0.0000e+00 -1.0000e+00
       -6  1    1    2    0  505 -3.7283101998e+01 +1.2528320488e+02 -5.8439490060e+02 6.2332360053e+02 1.7300000000e+02 0.0000e+00 -1.0000e+00
       21  1    1    2  504  501 -2.6286455921e+01 +3.3559101594e+01 -7.9019929322e+01 8.9784966975e+01 0.0000000000e+00 0.0000e+00 -1.0000e+00
       21  1    1    2  505  502 +1.1675121632e+01 +1.8975561636e+01 +2.7027008323e+01 3.5026269905e+01 0.0000000000e+00 0.0000e+00 -1.0000e+00
<mgrwt>
<rscale>  4 0.24132434E+03</rscale>
<asrwt>0</asrwt>
<pdfrwt beam="1">  1       21 0.99507740E-02 0.24132434E+03</pdfrwt>
<pdfrwt beam="2">  1       21 0.38706818E+00 0.24132434E+03</pdfrwt>
<totfact> 0.80105197E+02</totfact>
</mgrwt>
</event>
<event>
 6      1 +2.5168323e+02 2.70751600e+02 7.54677100e-03 9.87464100e-02
       21 -1    0    0  503  502 +0.0000000000e+00 +0.0000000000e+00 +7.6065768455e+02 7.6065768455e+02 0.0000000000e+00 0.0000e+00 1.0000e+00
       21 -1    0    0  505  503 -0.0000000000e+00 -0.0000000000e+00 -3.6216666178e+02 3.6216666178e+02 0.0000000000e+00 0.0000e+00 -1.0000e+00
        6  1    1    2  501    0 +1.7401885758e+02 -7.5523789297e+01 +2.1642803439e+02 3.3579234597e+02 1.7300000000e+02 0.0000e+00 1.0000e+00
       -6  1    1    2    0  504 -2.1257846083e+02 +6.7005712531e+01 +3.9249882614e+02 4.8338772848e+02 1.7300000000e+02 0.0000e+00 1.0000e+00
       21  1    1    2  504  502 -3.9949428382e+01 +4.0957281633e+01 +1.7956815438e+01 5.9965848343e+01 0.0000000000e+00 0.0000e+00 -1.0000e+00
       21  1    1    2  505  501 +7.8509031637e+01 -3.2439204867e+01 -2.2839265320e+02 2.4367842354e+02 0.0000000000e+00 0.0000e+00 -1.0000e+00
<mgrwt>
<rscale>  4 0.27075161E+03</rscale>
<asrwt>0</asrwt>
<pdfrwt beam="1">  1       21 0.11702426E+00 0.27075161E+03</pdfrwt>
<pdfrwt beam="2">  1       21 0.55717948E-01 0.27075161E+03</pdfrwt>
<totfact> 0.15999267E+03</totfact>
</mgrwt>
</event>
<event>
 6      1 +2.5168323e+02 2.75811700e+02 7.54677100e-03 1.11910500e-01
       21 -1    0    0  501  502 +0.0000000000e+00 +0.0000000000e+00 +6.0962187181e+02 6.0962187181e+02 0.0000000000e+00 0.0000e+00 -1.0000e+00
       21 -1    0    0  505  503 -0.0000000000e+00 -0.0000000000e+00 -2.2051105203e+02 2.2051105203e+02 0.0000000000e+00 0.0000e+00 -1.0000e+00
        6  1    1    2  501    0 +1.2793079036e+02 +1.5142012200e+02 +7.1030055470e+01 2.7252267658e+02 1.7300000000e+02 0.0000e+00 -1.0000e+00
       -6  1    1    2    0  504 -1.3268614390e+02 -1.7890511876e+02 +3.7235166134e+02 4.6710535643e+02 1.7300000000e+02 0.0000e+00 -1.0000e+00
       21  1    1    2  504  503 -2.2779956435e+01 -2.6913668501e+00 -4.1991467880e+01 4.7848231372e+01 0.0000000000e+00 0.0000e+00 -1.0000e+00
       21  1    1    2  505  502 +2.7535309969e+01 +3.0176363608e+01 -1.2279429149e+01 4.2656659456e+01 0.0000000000e+00 0.0000e+00 -1.0000e+00
<mgrwt>
<rscale>  4 0.27581172E+03</rscale>
<asrwt>0</asrwt>
<pdfrwt beam="1">  1       21 0.93787980E-01 0.27581172E+03</pdfrwt>
<pdfrwt beam="2">  1       21 0.33924777E-01 0.27581172E+03</pdfrwt>
<totfact> 0.75834398E+03</totfact>
</mgrwt>
</event>
<event>
 6      1 +2.5168323e+02 2.01339900e+02 7.54677100e-03 1.09842800e-01
       21 -1    0    0  505  502 +0.0000000000e+00 +0.0000000000e+00 +1.1281621724e+02 1.1281621724e+02 0.0000000000e+00 0.0000e+00 1.0000e+00
       21 -1    0    0  501  503 -0.0000000000e+00 -0.0000000000e+00 -1.8193605514e+03 1.8193605514e+03 0.0000000000e+00 0.0000e+00 1.0000e+00
        6  1    1    2  501    0 -1.1551472086e+02 +1.2834544051e-02 -1.3592453829e+03 1.3750711479e+03 1.7300000000e+02 0.0000e+00 1.0000e+00
       -6  1    1    2    0  504 +4.7346805912e+01 +6.9914398230e+01 -2.5535032187e+02 3.1978513097e+02 1.7300000000e+02 0.0000e+00 -1.0000e+00
       21  1    1    2  504  502 +1.6098107869e+01 -8.1616959422e+01 -1.4172977117e+02 1.6434051594e+02 0.0000000000e+00 0.0000e+00 1.0000e+00
       21  1    1    2  505  503 +5.2069807080e+01 +1.1689726648e+01 +4.9781141708e+01 7.2979973884e+01 0.0000000000e+00 0.0000e+00 1.0000e+00
<mgrwt>
<rscale>  4 0.20133986E+03</rscale>
<asrwt>0</asrwt>
<pdfrwt beam="1">  1       21 0.17356342E-01 0.20133986E+03</pdfrwt>
<pdfrwt beam="2">  1       21 0.27990161E+00 0.20133986E+03</pdfrwt>
<totfact> 0.13235991E+03</totfact>
</mgrwt>
</event>
<event>
 6      1 +2.5168323e+02 2.26642800e+02 7.54677100e-03 1.17132900e-01
       21 -1    0    0  503  502 +0.0000000000e+00 +0.0000000000e+00 +1.1423084952e+02 1.1423084952e+02 0.0000000000e+00 0.0000e+00 -1.0000e+00
       21 -1    0    0  504  503 -0.0000000000e+00 -0.0000000000e+00 -8.1722310060e+02 8.1722310060e+02 0.0000000000e+00 0.0000e+00 1.0000e+00
        6  1    1    2  501    0 +2.9574875850e+01 +1.2355392246e+02 -4.3785255957e+02 4.8763111976e+02 1.7300000000e+02 0.0000e+00 1.0000e+00
       -6  1    1    2    0  505 -1.9222671371e+01 -1.3687888151e+02 -1.1701260555e+02 2.5045216940e+02 1.7300000000e+02 0.0000e+00 -1.0000e+00
       21  1    1    2  504  501 -9.3222736349e+00 +4.4564122964e+01 -1.5484594235e+02 1.6140053192e+02 0.0000000000e+00 0.0000e+00 1.0000e+00
       21  1    1    2  505  502 -1.0299308438e+00 -3.1239163912e+01 +6.7188563918e+00 3.1970129037e+01 0.0000000000e+00 0.0000e+00 -1.0000e+00
<mgrwt>
<rscale>  4 0.22664277E+03</rscale>
<asrwt>0</asrwt>
<pdfrwt beam="1">  1       21 0.17573978E-01 0.22664277E+03</pdfrwt>
<pdfrwt beam="2">  1       21 0.12572662E+00 0.22664277E+03</pdfrwt>
<totfact> 0.13490788E+04</totfact>
</mgrwt>
</event>
<event>
 6      1 +2.5168323e+02 1.76030100e+02 7.54677100e-03 1.03924000e-01
       21 -1    0    0  504  502 +0.0000000000e+00 +0.0000000000e+00 +1.6041478267e+02 1.6041478267e+02 0.0000000000e+00 0.0000e+00 1.0000e+00
       21 -1    0    0  501  503 -0.0000000000e+00 -0.0000000000e+00 -9.9124413169e+02 9.9124413169e+02 0.0000000000e+00 0.0000e+00 1.0000e+00
        6  1    1    2  501    0 -4.8819328730e+01 +7.2888992002e+00 -3.8019620317e+02 4.2061218220e+02 1.7300000000e+02 0.0000e+00 1.0000e+00
       -6  1    1    2    0  505 -9.1903861056e+01 +4.9609418786e+01 -5.2070294915e+02 5.5854093437e+02 1.7300000000e+02 0.0000e+00 1.0000e+00
       21  1    1    2  504  503 +2.8252643523e+01 -8.1549560146e-01 +2.8481437678e+01 4.0125667487e+01 0.0000000000e+00 0.0000e+00 1.0000e+00
       21  1    1    2  505  502 +1.1247054626e+02 -5.6082822384e+01 +4.1588365627e+01 1.3238013030e+02 0.0000000000e+00 0.0000e+00 1.0000e+00
<mgrwt>
<rscale>  4 0.17603014E+03</rscale>
<asrwt>0</asrwt>
<pdfrwt beam="1">  1       21 0.24679197E-01 0.17603014E+03</pdfrwt>
<pdfrwt beam="2">  1       21 0.15249910E+00 0.17603014E+03</pdfrwt>
<totfact> 0.45082735E+03</totfact>
</mgrwt>
</event>
<event>
 6      1 +2.5168323e+02 1.96328000e+02 7.54677100e-03 1.16820100e-01
       21 -1    0    0  505  502 +0.0000000000e+00 +0.0000000000e+00 +2.0070936271e+03 2.0070936271e+03 0.0000000000e+00 0.0000e+00 1.0000e+00
       21 -1    0    0  501  503 -0.0000000000e+00 -0.0000000000e+00 -2.7141652838e+02 2.7141652838e+02 0.0000000000e+00 0.0000e+00 -1.0000e+00
        6  1    1    2  501    0 +1.2380084603e+01 -1.1374570001e+02 +2.6665481418e+02 3.3782412686e+02 1.7300000000e+02 0.0000e+00 1.0000e+00
       -6  1    1    2    0  502 +3.7373338549e+01 +7.0304364837e+01 +2.1956117231e+02 2.9064682784e+02 1.7300000000e+02 0.0000e+00 -1.0000e+00
       21  1    1    2  504  503 -2.7772499971e+01 +3.4428486724e+01 -1.9774810385e+02 2.0263500445e+02 0.0000000000e+00 0.0000e+00 -1.0000e+00
       21  1    1    2  505  504 -2.1980923181e+01 +9.0128484441e+00 +1.4472092161e+03 1.4474041963e+03 0.0000000000e+00 0.0000e+00 1.0000e+00
<mgrwt>
<rscale>  4 0.19632797E+03</rscale>
<asrwt>0</asrwt>
<pdfrwt beam="1">  1       21 0.30878363E+00 0.19632797E+03</pdfrwt>
<pdfrwt beam="2">  1       21 0.41756390E-01 0.19632797E+03</pdfrwt>
<totfact> 0.16676820E+02</totfact>
</mgrwt>
</event>
<event>
 6      1 +2.5168323e+02 1.82579900e+02 7.54677100e-03 1.12989000e-01
       21 -1    0    0  505  502 +0.0000000000e+00 +0.0000000000e+00 +3.6563533220e+02 3.6563533220e+02 0.0000000000e+00 0.0000e+00 -1.0000e+00
       21 -1    0    0  501  503 -0.0000000000e+00 -0.0000000000e+00 -6.9641098584e+02 6.9641098584e+02 0.0000000000e+00 0.0000e+00 -1.0000e+00
        6  1    1    2  501    0 -1.3405681010e+01 -1.1487983970e+02 -2.0098244757e+02 2.8930958174e+02 1.7300000000e+02 0.0000e+00 -1.0000e+00
       -6  1    1    2    0  502 -2.3752140043e+01 +4.8379656451e+01 +2.8932814220e+02 3.4138618774e+02 1.7300000000e+02 0.0000e+00 -1.0000e+00
       21  1    1    2  504  503 +2.9299836494e+01 +4.6640021750e+01 -3.9624009670e+02 4.0004997972e+02 0.0000000000e+00 0.0000e+00 -1.0000e+00
       21  1    1    2  505  504 +7.8579845591e+00 +1.9860161495e+01 -2.2881251570e+01 3.1300568834e+01 0.0000000000e+00 0.0000e+00 -1.0000e+00
<mgrwt>
<rscale>  4 0.18257988E+03</rscale>
<asrwt>0</asrwt>
<pdfrwt beam="1">  1       21 0.56251590E-01 0.18257988E+03</pdfrwt>
<pdfrwt beam="2">  1       21 0.10714015E+00 0.18257988E+03</pdfrwt>
<totfact> 0.20892932E+03</totfact>
</mgrwt>
</event>
<event>
 6      1 +2.5168323e+02 2.03919800e+02 7.54677100e-03 1.09842800e-01
       21 -1    0    0  503  502 +0.0000000000e+00 +0.0000000000e+00 +9.4351122962e+02 9.4351122962e+02 0.0000000000e+00 0.0000e+00 1.0000e+00
       21 -1    0    0  501  503 -0.0000000000e+00 -0.0000000000e+00 -4.0000366801e+02 4.0000366801e+02 0.0000000000e+00 0.0000e+00 -1.0000e+00
        6  1    1    2  501    0 -5.8185464778e+01 +7.9282554977e+01 -3.3127126969e+02 3.8644653700e+02 1.7300000000e+02 0.0000e+00 -1.0000e+00
       -6  1    1    2    0  504 +6.5687216525e+01 -8.4432025729e+01 +3.1698659670e+02 3.7663388041e+02 1.7300000000e+02 0.0000e+00 1.0000e+00
       21  1    1    2  504  505 +1.5818362239e+01 +2.1864480388e+01 +5.6807973234e+00 2.7578026485e+01 0.0000000000e+00 0.0000e+00 -1.0000e+00
       21  1    1    2  505  502 -2.3320113986e+01 -1.6715009636e+01 +5.5211143728e+02 5.5285645373e+02 0.0000000000e+00 0.0000e+00 1.0000e+00
<mgrwt>
<rscale>  4 0.20391977E+03</rscale>
<asrwt>0</asrwt>
<pdfrwt beam="1">  1       21 0.14515557E+00 0.20391977E+03</pdfrwt>
<pdfrwt beam="2">  1       21 0.61539026E-01 0.20391977E+03</pdfrwt>
<totfact> 0.78984549E+02</totfact>
</mgrwt>
</event>
<event>
 6      1 +2.5168323e+02 1.85068500e+02 7.54677100e-03 1.15942100e-01
       21 -1    0    0  504  502 +0.0000000000e+00 +0.0000000000e+00 +1.3472494580e+03 1.3472494580e+03 0.0000000000e+00 0.0000e+00 -1.0000e+00
       21 -1    0    0  501  503 -0.0000000000e+00 -0.0000000000e+00 -1.7453667114e+03 1.7453667114e+03 0.0000000000e+00 0.0000e+00 -1.0000e+00
        6  1    1    2  501    0 -6.4345136552e+01 +4.6241473270e+01 +1.1217002501e+03 1.1377253718e+03 1.7300000000e+02 0.0000e+00 -1.0000e+00
       -6  1    1    2    0  502 +1.7277623429e+01 +3.0410459937e+01 +1.5286960105e+02 2.3349823826e+02 1.7300000000e+02 0.0000e+00 1.0000e+00
       21  1    1    2  504  505 +1.3144251049e+02 -1.7146114449e+01 -1.7197270983e+02 2.1713068813e+02 0.0000000000e+00 0.0000e+00 -1.0000e+00
       21  1    1    2  505  503 -8.4374997363e+01 -5.9505818758e+01 -1.5007143948e+03 1.5042618713e+03 0.0000000000e+00 0.0000e+00 -1.0000e+00
<mgrwt>
<rscale>  4 0.18506854E+03</rscale>
<asrwt>0</asrwt>
<pdfrwt beam="1">  1       21 0.20726915E+00 0.18506854E+03</pdfrwt>
<pdfrwt beam="2">  1       21 0.26851795E+00 0.18506854E+03</pdfrwt>
<totfact> 0.63625555E+00</totfact>
</mgrwt>
</event>
<event>
 6      1 +2.5168323e+02 1.74910400e+02 7.54677100e-03 1.16820100e-01
       21 -1    0    0  504  502 +0.0000000000e+00 +0.0000000000e+00 +2.1887431246e+03 2.1887431246e+03 0.0000000000e+00 0.0000e+00 -1.0000e+00
       21 -1    0    0  505  503 -0.0000000000e+00 -0.0000000000e+00 -1.2760883828e+02 1.2760883828e+02 0.0000000000e+00 0.0000e+00 -1.0000e+00
        6  1    1    2  501    0 +1.1626124492e+00 -3.4202203419e+01 +9.5856286227e+00 1.7661264582e+02 1.7300000000e+02 0.0000e+00 -1.0000e+00
       -6  1    1    2    0  503 +7.2761331298e+00 -7.4569009798e+00 +2.9415027071e+02 3.4141167122e+02 1.7300000000e+02 0.0000e+00 1.0000e+00
       21  1    1    2  504  501 -5.1563546721e+01 +4.4609757960e+01 +3.7361581335e+01 7.7747782062e+01 0.0000000000e+00 0.0000e+00 -1.0000e+00
       21  1    1    2  505  502 +4.3124801142e+01 -2.9506535610e+00 +1.7200368056e+03 1.7205798638e+03 0.0000000000e+00 0.0000e+00 -1.0000e+00
<mgrwt>
<rscale>  4 0.17491041E+03</rscale>
<asrwt>0</asrwt>
<pdfrwt beam="1">  1       21 0.33672968E+00 0.17491041E+03</pdfrwt>
<pdfrwt beam="2">  1       21 0.19632131E-01 0.17491041E+03</pdfrwt>
<totfact> 0.51439412E+02</totfact>
</mgrwt>
</event>
<event>
 6      1 +2.5168323e+02 1.75457300e+02 7.54677100e-03 1.11910500e-01
       21 -1    0    0  501  502 +0.0000000000e+00 +0.0000000000e+00 +2.2019357111e+03 2.2019357111e+03 0.0000000000e+00 0.0000e+00 1.0000e+00
       21 -1    0    0  505  503 -0.0000000000e+00 -0.0000000000e+00 -1.9700376938e+02 1.9700376938e+02 0.0000000000e+00 0.0000e+00 -1.0000e+00
        6  1    1    2  501    0 -1.3533118671e+01 +2.0605325532e+01 +1.4325386081e+03 1.4431575065e+03 1.7300000000e+02 0.0000e+00 1.0000e+00
       -6  1    1    2    0  504 +5.5372788883e+01 +9.5707740222e+00 +7.4672414968e+02 7.6855949749e+02 1.7300000000e+02 0.0000e+00 -1.0000e+00
       21  1    1    2  504  503 -3.3146823391e+01 +1.9647400141e+00 -6.5868973627e+01 7.3765125845e+01 0.0000000000e+00 0.0000e+00 1.0000e+00
       21  1    1    2  505  502 -8.6928468220e+00 -3.2140839568e+01 -1.0846184246e+02 1.1345735068e+02 0.0000000000e+00 0.0000e+00 -1.0000e+00
<mgrwt>
<rscale>  4 0.17545728E+03</rscale>
<asrwt>0</asrwt>
<pdfrwt beam="1">  1       21 0.33875932E+00 0.17545728E+03</pdfrwt>
<pdfrwt beam="2">  1       21 0.30308274E-01 0.17545728E+03</pdfrwt>
<totfact> 0.21904982E+02</totfact>
</mgrwt>
</event>
<event>
 6      1 +2.5168323e+02 2.01000900e+02 7.54677100e-03 1.16820100e-01
       21 -1    0    0  501  502 +0.0000000000e+00 +0.0000000000e+00 +9.2041120488e+01 9.2041120488e+01 0.0000000000e+00 0.0000e+00 1.0000e+00
       21 -1    0    0  504  503 -0.0000000000e+00 -0.0000000000e+00 -9.6715133292e+02 9.6715133292e+02 0.0000000000e+00 0.0000e+00 1.0000e+00
        6  1    1    2  501    0 -6.3888011678e+01 +5.6285474272e+01 -6.6405518161e+01 2.0393240422e+02 1.7300000000e+02 0.0000e+00 1.0000e+00
       -6  1    1    2    0  503 +1.1506100730e+02 -5.3469144183e+01 -6.6024341225e+02 6.9422499826e+02 1.7300000000e+02 0.0000e+00 1.0000e+00
       21  1    1    2  504  505 -2.8705657470e+01 +1.3544262549e+00 -1.2509072073e+02 1.2834927991e+02 0.0000000000e+00 0.0000e+00 1.0000e+00
       21  1    1    2  505  502 -2.2467338148e+01 -4.1707563439e+00 -2.3370561287e+01 3.2685771015e+01 0.0000000000e+00 0.0000e+00 1.0000e+00
<mgrwt>
<rscale>  4 0.20100086E+03</rscale>
<asrwt>0</asrwt>
<pdfrwt beam="1">  1       21 0.14160172E-01 0.20100086E+03</pdfrwt>
<pdfrwt beam="2">  1       21 0.14879252E+00 0.20100086E+03</pdfrwt>
<totfact> 0.13218940E+04</totfact>
</mgrwt>
</event>
<event>
 6      1 +2.5168323e+02 2.89223600e+02 7.54677100e-03 1.09842800e-01
       21 -1    0    0  501  502 +0.0000000000e+00 +0.0000000000e+00 +1.3617012923e+03 1.3617012923e+03 0.0000000000e+00 0.0000e+00 -1.0000e+00
       21 -1    0    0  505  503 -0.0000000000e+00 -0.0000000000e+00 -2.6062330183e+02 2.6062330183e+02 0.0000000000e+00 0.0000e+00 1.0000e+00
        6  1    1    2  501    0 +3.4623742755e+01 -1.7286930972e+02 +8.9101674351e+02 9.2462015932e+02 1.7300000000e+02 0.0000e+00 -1.0000e+00
       -6  1    1    2    0  504 +2.3033455567e+01 +3.0537993382e+02 -6.6394380355e+01 3.5794504857e+02 1.7300000000e+02 0.0000e+00 1.0000e+00
       21  1    1    2  504  503 -3.1816622527e+01 -7.1226018094e+01 +2.8521992231e+01 8.3059901056e+01 0.0000000000e+00 0.0000e+00 -1.0000e+00
       21  1    1    2  505  502 -2.5840575794e+01 -6.1284606004e+01 +2.4793363506e+02 2.5669948516e+02 0.0000000000e+00 0.0000e+00 -1.0000e+00
<mgrwt>
<rscale>  4 0.28922357E+03</rscale>
<asrwt>0</asrwt>
<pdfrwt beam="1">  1       21 0.20949250E+00 0.28922357E+03</pdfrwt>
<pdfrwt beam="2">  1       21 0.40095893E-01 0.28922357E+03</pdfrwt>
<totfact> 0.63742850E+02</totfact>
</mgrwt>
</event>
<event>
 6      1 +2.5168323e+02 1.88058500e+02 7.54677100e-03 1.12068800e-01
       21 -1    0    0  504  502 +0.0000000000e+00 +0.0000000000e+00 +1.7507858626e+02 1.7507858626e+02 0.0000000000e+00 0.0000e+00 -1.0000e+00
       21 -1    0    0  502  503 -0.0000000000e+00 -0.0000000000e+00 -2.0428595990e+03 2.0428595990e+03 0.0000000000e+00 0.0000e+00 1.0000e+00
        6  1    1    2  501    0 +6.4692687421e+01 +2.2651097808e+01 +3.4934706796e+01 1.8933475586e+02 1.7300000000e+02 0.0000e+00 -1.0000e+00
       -6  1    1    2    0  505 -4.5841561947e+01 -9.1168777804e+01 -1.0022918664e+02 2.2447290416e+02 1.7300000000e+02 0.0000e+00 -1.0000e+00
       21  1    1    2  504  501 -1.9141508352e+01 +2.8212562412e+01 -1.0627544694e+03 1.0633011842e+03 0.0000000000e+00 0.0000e+00 1.0000e+00
       21  1    1    2  505  503 +2.9038287704e-01 +4.0305117584e+01 -7.3973206348e+02 7.4082934105e+02 0.0000000000e+00 0.0000e+00 -1.0000e+00
<mgrwt>
<rscale>  4 0.18805848E+03</rscale>
<asrwt>0</asrwt>
<pdfrwt beam="1">  1       21 0.26935168E-01 0.18805848E+03</pdfrwt>
<pdfrwt beam="2">  1       21 0.31428608E+00 0.18805848E+03</pdfrwt>
<totfact> 0.37342559E+02</totfact>
</mgrwt>
</event>
<event>
 6      1 +2.5168323e+02 5.22575500e+02 7.54677100e-03 1.17132900e-01
       21 -1    0    0  503  502 +0.0000000000e+00 +0.0000000000e+00 +3.6617759666e+02 3.6617759666e+02 0.0000000000e+00 0.0000e+00 -1.0000e+00
       21 -1    0    0  504  503 -0.0000000000e+00 -0.0000000000e+00 -2.4702471736e+03 2.4702471736e+03 0.0000000000e+00 0.0000e+00 1.0000e+00
        6  1    1    2  501    0 +2.1018238854e+02 +6.1670890717e+01 -1.1734264266e+02 3.0278413268e+02 1.7300000000e+02 0.0000e+00 1.0000e+00
       -6  1    1    2    0  505 -5.1472313607e+02 -3.7848816583e+02 -5.9633192407e+02 8.9091748335e+02 1.7300000000e+02 0.0000e+00 -1.0000e+00
       21  1    1    2  504  501 +3.4131944373e+02 +3.0714630727e+02 -1.4777528771e+03 1.5474467301e+03 0.0000000000e+00 0.0000e+00 1.0000e+00
       21  1    1    2  505  502 -3.6778696208e+01 +9.6709678412e+00 +8.7357866815e+01 9.5276424199e+01 0.0000000000e+00 0.0000e+00 -1.0000e+00
<mgrwt>
<rscale>  4 0.44332329E+03</rscale>
<asrwt>0</asrwt>
<pdfrwt beam="1">  1       21 0.56335016E-01 0.52257555E+03</pdfrwt>
<pdfrwt beam="2">  1       21 0.38003802E+00 0.52257555E+03</pdfrwt>
<totfact> 0.23966639E+01</totfact>
</mgrwt>
</event>
<event>
 6      1 +2.5168323e+02 2.28774200e+02 7.54677100e-03 1.16820100e-01
       21 -1    0    0  501  502 +0.0000000000e+00 +0.0000000000e+00 +5.2907939509e+02 5.2907939509e+02 0.0000000000e+00 0.0000e+00 1.0000e+00
       21 -1    0    0  504  503 -0.0000000000e+00 -0.0000000000e+00 -2.1815782243e+02 2.1815782243e+02 0.0000000000e+00 0.0000e+00 1.0000e+00
        6  1    1    2  501    0 +1.3449089593e+02 +3.3925429504e+01 +2.2260345817e+02 3.1419744659e+02 1.7300000000e+02 0.0000e+00 1.0000e+00
       -6  1    1    2    0  503 -1.1802730433e+02 -1.3329586722e+02 +6.2861315745e+01 2.5608353676e+02 1.7300000000e+02 0.0000e+00 1.0000e+00
       21  1    1    2  504  505 -1.7571254290e+01 +7.1386028402e+01 -5.4968195049e+01 9.1794425186e+01 0.0000000000e+00 0.0000e+00 1.0000e+00
       21  1    1    2  505  502 +1.1076626902e+00 +2.7984409311e+01 +8.0424993795e+01 8.5161808976e+01 0.0000000000e+00 0.0000e+00 1.0000e+00
<mgrwt>
<rscale>  4 0.22877419E+03</rscale>
<asrwt>0</asrwt>
<pdfrwt beam="1">  1       21 0.81396830E-01 0.22877419E+03</pdfrwt>
<pdfrwt beam="2">  1       21 0.33562742E-01 0.22877419E+03</pdfrwt>
<totfact> 0.11046363E+04</totfact>
</mgrwt>
</event>
<event>
 6      1 +2.5168323e+02 2.26521000e+02 7.54677100e-03 1.07064900e-01
       21 -1    0    0  505  502 +0.0000000000e+00 +0.0000000000e+00 +1.4710887173e+02 1.4710887173e+02 0.0000000000e+00 0.0000e+00 -1.0000e+00
       21 -1    0    0  504  503 -0.0000000000e+00 -0.0000000000e+00 -7.4362639896e+02 7.4362639896e+02 0.0000000000e+00 0.0000e+00 -1.0000e+00
        6  1    1    2  501    0 -1.5878769478e+02 +4.7883338792e+01 -3.8507398729e+02 4.5356071461e+02 1.7300000000e+02 0.0000e+00 -1.0000e+00
       -6  1    1    2    0  503 +1.0504062717e+02 -7.3900296118e+01 -2.6928442292e+02 3.4487372697e+02 1.7300000000e+02 0.0000e+00 -1.0000e+00
       21  1    1    2  504  502 +4.5215183463e+01 +2.5921336402e+00 +4.6505753509e+01 6.4914690802e+01 0.0000000000e+00 0.0000e+00 -1.0000e+00
       21  1    1    2  505  501 +8.5318841443e+00 +2.3424823686e+01 +1.1335129474e+01 2.7386138318e+01 0.0000000000e+00 0.0000e+00 -1.0000e+00
<mgrwt>
<rscale>  4 0.22652096E+03</rscale>
<asrwt>0</asrwt>
<pdfrwt beam="1">  1       21 0.22632134E-01 0.22652096E+03</pdfrwt>
<pdfrwt beam="2">  1       21 0.11440406E+00 0.22652096E+03</pdfrwt>
<totfact> 0.10617840E+04</totfact>
</mgrwt>
</event>
<event>
 6      1 +2.5168323e+02 2.02664700e+02 7.54677100e-03 1.11910500e-01
       21 -1    0    0  501  502 +0.0000000000e+00 +0.0000000000e+00 +4.9991609056e+02 4.9991609056e+02 0.0000000000e+00 0.0000e+00 -1.0000e+00
       21 -1    0    0  505  503 -0.0000000000e+00 -0.0000000000e+00 -5.9999596954e+02 5.9999596954e+02 0.0000000000e+00 0.0000e+00 1.0000e+00
        6  1    1    2  501    0 -9.7919424372e+01 +6.0322365699e+01 +1.3279801578e+02 2.4655894725e+02 1.7300000000e+02 0.0000e+00 -1.0000e+00
       -6  1    1    2    0  504 +9.9568741073e+01 -2.2408788682e+01 +2.5498843374e+02 3.2459850485e+02 1.7300000000e+02 0.0000e+00 -1.0000e+00
       21  1    1    2  504  503 -4.8557114289e+01 +3.6257348337e+01 -4.0001485733e+02 4.0457913285e+02 0.0000000000e+00 0.0000e+00 1.0000e+00
       21  1    1    2  505  502 +4.6907797589e+01 -7.4170925354e+01 -8.7851471178e+01 1.2417547516e+02 0.0000000000e+00 0.0000e+00 -1.0000e+00
<mgrwt>
<rscale>  4 0.20266470E+03</rscale>
<asrwt>0</asrwt>
<pdfrwt beam="1">  1       21 0.76910168E-01 0.20266470E+03</pdfrwt>
<pdfrwt beam="2">  1       21 0.92307072E-01 0.20266470E+03</pdfrwt>
<totfact> 0.14748651E+03</totfact>
</mgrwt>
</event>
<event>
 6      1 +2.5168323e+02 1.75493500e+02 7.54677100e-03 1.09842800e-01
       21 -1    0    0  505  502 +0.0000000000e+00 +0.0000000000e+00 +9.3894408141e+02 9.3894408141e+02 0.0000000000e+00 0.0000e+00 -1.0000e+00
       21 -1    0    0  502  503 -0.0000000000e+00 -0.0000000000e+00 -1.4805092704e+02 1.4805092704e+02 0.0000000000e+00 0.0000e+00 -1.0000e+00
        6  1    1    2  501    0 +2.8410161868e+01 -1.5980608337e+01 -5.3119304538e+01 1.8388359811e+02 1.7300000000e+02 0.0000e+00 1.0000e+00
       -6  1    1    2    0  503 -6.7416554872e+00 +1.6043605588e+01 +2.9976983715e+02 3.4654552726e+02 1.7300000000e+02 0.0000e+00 -1.0000e+00
       21  1    1    2  504  501 -4.0515160589e+01 +3.2659071564e+01 +1.2196175136e+02 1.3260000750e+02 0.0000000000e+00 0.0000e+00 -1.0000e+00
       21  1    1    2  505  504 +1.8846654208e+01 -3.2722068815e+01 +4.2228087039e+02 4.2396587558e+02 0.0000000000e+00 0.0000e+00 -1.0000e+00
<mgrwt>
<rscale>  4 0.17549350E+03</rscale>
<asrwt>0</asrwt>
<pdfrwt beam="1">  1       21 0.14445293E+00 0.17549350E+03</pdfrwt>
<pdfrwt beam="2">  1       21 0.22777066E-01 0.17549350E+03</pdfrwt>
<totfact> 0.60502547E+03</totfact>
</mgrwt>
</event>
<event>
 6      1 +2.5168323e+02 1.94481700e+02 7.54677100e-03 1.16820100e-01
       21 -1    0    0  505  502 +0.0000000000e+00 +0.0000000000e+00 +1.4434308567e+03 1.4434308567e+03 0.0000000000e+00 0.0000e+00 1.0000e+00
       21 -1    0    0  504  503 -0.0000000000e+00 -0.0000000000e+00 -4.8384573524e+02 4.8384573524e+02 0.0000000000e+00 0.0000e+00 1.0000e+00
        6  1    1    2  501    0 +7.4675176844e+01 +6.4432955770e+01 +6.8920478632e+02 7.1739823342e+02 1.7300000000e+02 0.0000e+00 1.0000e+00
       -6  1    1    2    0  503 -6.8927214197e+01 -3.3455616904e+01 +2.8512264272e+02 3.4219024029e+02 1.7300000000e+02 0.0000e+00 1.0000e+00
       21  1    1    2  504  502 +2.0315280932e+01 -5.3614602036e+01 -4.3864797161e+02 4.4237911251e+02 0.0000000000e+00 0.0000e+00 1.0000e+00
       21  1    1    2  505  501 -2.6063243578e+01 +2.2637263171e+01 +4.2390566406e+02 4.2530900574e+02 0.0000000000e+00 0.0000e+00 1.0000e+00
<mgrwt>
<rscale>  4 0.19448174E+03</rscale>
<asrwt>0</asrwt>
<pdfrwt beam="1">  1       21 0.22206628E+00 0.19448174E+03</pdfrwt>
<pdfrwt beam="2">  1       21 0.74437806E-01 0.19448174E+03</pdfrwt>
<totfact> 0.15757387E+02</totfact>
</mgrwt>
</event>
<event>
 6      1 +2.5168323e+02 3.41819800e+02 7.54677100e-03 1.06249800e-01
       21 -1    0    0  505  502 +0.0000000000e+00 +0.0000000000e+00 +5.4607581876e+02 5.4607581876e+02 0.0000000000e+00 0.0000e+00 1.0000e+00
       21 -1    0    0  501  503 -0.0000000000e+00 -0.0000000000e+00 -5.6203091523e+02 5.6203091523e+02 0.0000000000e+00 0.0000e+00 -1.0000e+00
        6  1    1    2  501    0 -8.3951556510e+01 -2.4645055650e+02 -1.2078067871e+02 3.3511596946e+02 1.7300000000e+02 0.0000e+00 -1.0000e+00
       -6  1    1    2    0  502 -3.7394240312e+01 -3.2023887910e+01 -2.4675065476e+02 3.0535019932e+02 1.7300000000e+02 0.0000e+00 -1.0000e+00
       21  1    1    2  504  503 +1.6743678883e+01 +2.3116534572e+01 +5.8517181556e+01 6.5107491815e+01 0.0000000000e+00 0.0000e+00 1.0000e+00
       21  1    1    2  505  504 +1.0460211794e+02 +2.5535790984e+02 +2.9305905545e+02 4.0253307339e+02 0.0000000000e+00 0.0000e+00 1.0000e+00
<mgrwt>
<rscale>  4 0.29113001E+03</rscale>
<asrwt>0</asrwt>
<pdfrwt beam="1">  1       21 0.84011665E-01 0.34181979E+03</pdfrwt>
<pdfrwt beam="2">  1       21 0.86466294E-01 0.34181979E+03</pdfrwt>
<totfact> 0.12733277E+03</totfact>
</mgrwt>
</event>
<event>
 6      1 +2.5168323e+02 1.93712400e+02 7.54677100e-03 1.03924000e-01
       21 -1    0    0  504  502 +0.0000000000e+00 +0.0000000000e+00 +1.0773817500e+03 1.0773817500e+03 0.0000000000e+00 0.0000e+00 1.0000e+00
       21 -1    0    0  501  503 -0.0000000000e+00 -0.0000000000e+00 -8.0730666236e+02 8.0730666236e+02 0.0000000000e+00 0.0000e+00 -1.0000e+00
        6  1    1    2  501    0 -8.5148005743e+01 +1.1396652689e+02 -4.7225907578e+02 5.2268172609e+02 1.7300000000e+02 0.0000e+00 -1.0000e+00
       -6  1    1    2    0  505 +2.3500150697e+01 -2.1174585252e+01 -2.7611775270e+02 3.2736926169e+02 1.7300000000e+02 0.0000e+00 -1.0000e+00
       21  1    1    2  504  503 +6.4215743781e+01 -6.5398380483e+01 +9.9279635352e+02 9.9701815905e+02 0.0000000000e+00 0.0000e+00 1.0000e+00
       21  1    1    2  505  502 -2.5678887345e+00 -2.7393561151e+01 +2.5655562580e+01 3.7619265495e+01 0.0000000000e+00 0.0000e+00 -1.0000e+00
<mgrwt>
<rscale>  4 0.19371243E+03</rscale>
<asrwt>0</asrwt>
<pdfrwt beam="1">  1       21 0.16575104E+00 0.19371243E+03</pdfrwt>
<pdfrwt beam="2">  1       21 0.12420103E+00 0.19371243E+03</pdfrwt>
<totfact> 0.11070093E+02</totfact>
</mgrwt>
</event>
<event>
 6      1 +2.5168323e+02 1.78989300e+02 7.54677100e-03 1.17132900e-01
       21 -1    0    0  503  502 +0.0000000000e+00 +0.0000000000e+00 +4.2191010109e+02 4.2191010109e+02 0.0000000000e+00 0.0000e+00 1.0000e+00
       21 -1    0    0  504  503 -0.0000000000e+00 -0.0000000000e+00 -1.0551057844e+03 1.0551057844e+03 0.0000000000e+00 0.0000e+00 1.0000e+00
        6  1    1    2  501    0 -5.1590010549e+01 +1.0605124077e+01 -5.0679406137e+02 5.3809220258e+02 1.7300000000e+02 0.0000e+00 1.0000e+00
       -6  1    1    2    0  505 +4.0062860113e+01 +1.9787444643e+01 -4.9990920681e+02 5.3088114562e+02 1.7300000000e+02 0.0000e+00 -1.0000e+00
       21  1    1    2  504  501 +1.9659100512e+01 -6.5644497791e+00 -1.0483703514e+01 2.3226714645e+01 0.0000000000e+00 0.0000e+00 1.0000e+00
       21  1    1    2  505  502 -8.1319500764e+00 -2.3828118941e+01 +3.8399128834e+02 3.8481582268e+02 0.0000000000e+00 0.0000e+00 1.0000e+00
<mgrwt>
<rscale>  4 0.17898934E+03</rscale>
<asrwt>0</asrwt>
<pdfrwt beam="1">  1       21 0.64909248E-01 0.17898934E+03</pdfrwt>
<pdfrwt beam="2">  1       21 0.16232396E+00 0.17898934E+03</pdfrwt>
<totfact> 0.53786695E+02</totfact>
</mgrwt>
</event>
<event>
 6      1 +2.5168323e+02 2.74152600e+02 7.54677100e-03 1.11910500e-01
       21 -1    0    0  501  502 +0.0000000000e+00 +0.0000000000e+00 +2.0290100410e+03 2.0290100410e+03 0.0000000000e+00 0.0000e+00 1.0000e+00
       21 -1    0    0  504  503 -0.0000000000e+00 -0.0000000000e+00 -2.7734027279e+02 2.7734027279e+02 0.0000000000e+00 0.0000e+00 -1.0000e+00
        6  1    1    2  501    0 +1.5659756791e+02 -1.4351437923e+02 +1.8712534625e+03 1.8912000678e+03 1.7300000000e+02 0.0000e+00 1.0000e+00
       -6  1    1    2    0  503 -2.0722975668e+02 +9.3480805943e+01 -1.7477863498e+01 2.8621199983e+02 1.7300000000e+02 0.0000e+00 -1.0000e+00
       21  1    1    2  504  505 +2.0261654261e+00 +2.1142086603e+01 -3.7378478811e+01 4.2991206664e+01 0.0000000000e+00 0.0000e+00 -1.0000e+00
       21  1    1    2  505  502 +4.8606023345e+01 +2.8891486687e+01 -6.4727352003e+01 8.5947039540e+01 0.0000000000e+00 0.0000e+00 -1.0000e+00
<mgrwt>
<rscale>  4 0.27415263E+03</rscale>
<asrwt>0</asrwt>
<pdfrwt beam="1">  1       21 0.31215538E+00 0.27415263E+03</pdfrwt>
<pdfrwt beam="2">  1       21 0.42667736E-01 0.27415263E+03</pdfrwt>
<totfact> 0.13748559E+02</totfact>
</mgrwt>
</event>
<event>
 6      1 +2.5168323e+02 1.78002900e+02 7.54677100e-03 1.16820100e-01
       21 -1    0    0  505  502 +0.0000000000e+00 +0.0000000000e+00 +6.1740781380e+02 6.1740781380e+02 0.0000000000e+00 0.0000e+00 -1.0000e+00
       21 -1    0    0  504  503 -0.0000000000e+00 -0.0000000000e+00 -8.2387573792e+01 8.2387573792e+01 0.0000000000e+00 0.0000e+00 -1.0000e+00
        6  1    1    2  501    0 -1.5548271369e+01 -3.3052931890e+01 +2.6897812741e+02 3.2188892195e+02 1.7300000000e+02 0.0000e+00 -1.0000e+00
       -6  1    1    2    0  503 +6.9697836173e+01 -3.7744222524e+00 +1.9390592190e+02 2.6907348658e+02 1.7300000000e+02 0.0000e+00 -1.0000e+00
       21  1    1    2  504  502 -3.2118293742e+01 +4.7171540202e+01 +5.2821738115e+01 7.7761655174e+01 0.0000000000e+00 0.0000e+00 -1.0000e+00
       21  1    1    2  505  501 -2.2031271062e+01 -1.0344186059e+01 +1.9314452585e+01 3.1071323893e+01 0.0000000000e+00 0.0000e+00 -1.0000e+00
<mgrwt>
<rscale>  4 0.17800286E+03</rscale>
<asrwt>0</asrwt>
<pdfrwt beam="1">  1       21 0.94985814E-01 0.17800286E+03</pdfrwt>
<pdfrwt beam="2">  1       21 0.12675012E-01 0.17800286E+03</pdfrwt>
<totfact> 0.49658448E+04</totfact>
</mgrwt>
</event>
<event>
 6      1 +2.5168323e+02 2.90701800e+02 7.54677100e-03 1.16820100e-01
       21 -1    0    0  504  502 +0.0000000000e+00 +0.0000000000e+00 +1.3703222126e+02 1.3703222126e+02 0.0000000000e+00 0.0000e+00 -1.0000e+00
       21 -1    0    0  501  503 -0.0000000000e+00 -0.0000000000e+00 -3.4000210804e+03 3.4000210804e+03 0.0000000000e+00 0.0000e+00 -1.0000e+00
        6  1    1    2  501    0 -1.3231573773e+02 +1.6835612693e+02 -1.6737830467e+03 1.6962694147e+03 1.7300000000e+02 0.0000e+00 -1.0000e+00
       -6  1    1    2    0  505 +6.6874505021e+01 -3.5505153449e+02 -1.1649154656e+03 1.2318647789e+03 1.7300000000e+02 0.0000e+00 -1.0000e+00
       21  1    1    2  504  503 +2.4603456852e+01 -1.6131796624e+01 -3.9945424453e+02 4.0053621363e+02 0.0000000000e+00 0.0000e+00 1.0000e+00
       21  1    1    2  505  502 +4.0837775858e+01 +2.0282720418e+02 -2.4836102315e+01 2.0838289439e+02 0.0000000000e+00 0.0000e+00 -1.0000e+00
<mgrwt>
<rscale>  4 0.29070178E+03</rscale>
<asrwt>0</asrwt>
<pdfrwt beam="1">  1       21 0.21081879E-01 0.29070178E+03</pdfrwt>
<pdfrwt beam="2">  1       21 0.52308019E+00 0.29070178E+03</pdfrwt>
<totfact> 0.23140455E+01</totfact>
</mgrwt>
</event>
<event>
 6      1 +2.5168323e+02 1.97169000e+02 7.54677100e-03 1.05831300e-01
       21 -1    0    0  504  502 +0.0000000000e+00 +0.0000000000e+00 +5.4050377942e+02 5.4050377942e+02 0.0000000000e+00 0.0000e+00 -1.0000e+00
       21 -1    0    0  501  503 -0.0000000000e+00 -0.0000000000e+00 -2.4327204913e+02 2.4327204913e+02 0.0000000000e+00 0.0000e+00 -1.0000e+00
        6  1    1    2  501    0 -1.6759641542e+01 -1.3044931985e+02 -9.2707191140e+01 2.3626581201e+02 1.7300000000e+02 0.0000e+00 -1.0000e+00
       -6  1    1    2    0  505 +1.0369319249e+01 +1.0462877778e+02 +2.4106516625e+02 3.1479535940e+02 1.7300000000e+02 0.0000e+00 -1.0000e+00
       21  1    1    2  504  503 +6.2269786227e+00 +5.1168028647e+01 -2.4799725508e+01 5.7201125895e+01 0.0000000000e+00 0.0000e+00 -1.0000e+00
       21  1    1    2  505  502 +1.6334367036e-01 -2.5347486578e+01 +1.7367348069e+02 1.7551353125e+02 0.0000000000e+00 0.0000e+00 -1.0000e+00
<mgrwt>
<rscale>  4 0.19716904E+03</rscale>
<asrwt>0</asrwt>
<pdfrwt beam="1">  1       21 0.83154427E-01 0.19716904E+03</pdfrwt>
<pdfrwt beam="2">  1       21 0.37426469E-01 0.19716904E+03</pdfrwt>
<totfact> 0.86463087E+03</totfact>
</mgrwt>
</event>
<event>
 6      1 +2.5168323e+02 1.86146500e+02 7.54677100e-03 1.07240600e-01
       21 -1    0    0  505  502 +0.0000000000e+00 +0.0000000000e+00 +6.8424076093e+02 6.8424076093e+02 0.0000000000e+00 0.0000e+00 1.0000e+00
       21 -1    0    0  504  503 -0.0000000000e+00 -0.0000000000e+00 -1.7887226552e+03 1.7887226552e+03 0.0000000000e+00 0.0000e+00 1.0000e+00
        6  1    1    2  501    0 -4.1178503744e+00 -6.0955745042e+01 +3.3631046534e+02 3.8310088573e+02 1.7300000000e+02 0.0000e+00 1.0000e+00
       -6  1    1    2    0  502 +7.9014221335e+01 +5.5083619677e+01 +2.8147168464e+02 3.4414061310e+02 1.7300000000e+02 0.0000e+00 -1.0000e+00
       21  1    1    2  504  501 -5.9496679208e+01 +2.7179370624e+01 -8.0398870603e+01 1.0364628029e+02 0.0000000000e+00 0.0000e+00 -1.0000e+00
       21  1    1    2  505  503 -1.5399691752e+01 -2.1307245259e+01 -1.6418651736e+03 1.6420756370e+03 0.0000000000e+00 0.0000e+00 1.0000e+00
<mgrwt>
<rscale>  4 0.18614653E+03</rscale>
<asrwt>0</asrwt>
<pdfrwt beam="1">  1       21 0.10526781E+00 0.18614653E+03</pdfrwt>
<pdfrwt beam="2">  1       21 0.27518810E+00 0.18614653E+03</pdfrwt>
<totfact> 0.34854291E+01</totfact>
</mgrwt>
</event>
<event>
 6      1 +2.5168323e+02 2.79355000e+02 7.54677100e-03 1.03924000e-01
       21 -1    0    0  504  502 +0.0000000000e+00 +0.0000000000e+00 +1.3909459206e+02 1.3909459206e+02 0.0000000000e+00 0.0000e+00 -1.0000e+00
       21 -1    0    0  501  503 -0.0000000000e+00 -0.0000000000e+00 -9.0729940381e+02 9.0729940381e+02 0.0000000000e+00 0.0000e+00 1.0000e+00
        6  1    1    2  501    0 +1.1029883142e+02 -1.9065210296e+02 -3.3249822639e+02 4.3473914837e+02 1.7300000000e+02 0.0000e+00 -1.0000e+00
       -6  1    1    2    0  505 -1.5083438185e+02 +1.6166168088e+02 -4.5075153572e+02 5.3102867792e+02 1.7300000000e+02 0.0000e+00 -1.0000e+00
       21  1    1    2  504  503 -5.9442441485e+00 +3.0243445792e+01 -2.5141158650e+00 3.0924437432e+01 0.0000000000e+00 0.0000e+00 1.0000e+00
       21  1    1    2  505  502 +4.6479794577e+01 -1.2530237174e+00 +1.7559066230e+01 4.9701732155e+01 0.0000000000e+00 0.0000e+00 -1.0000e+00
<mgrwt>
<rscale>  4 0.27935503E+03</rscale>
<asrwt>0</asrwt>
<pdfrwt beam="1">  1       21 0.21399168E-01 0.27935503E+03</pdfrwt>
<pdfrwt beam="2">  1       21 0.13958453E+00 0.27935503E+03</pdfrwt>
<totfact> 0.69198311E+03</totfact>
</mgrwt>
</event>
<event>
 6      1 +2.5168323e+02 3.64140100e+02 7.54677100e-03 1.16820100e-01
       21 -1    0    0  501  502 +0.0000000000e+00 +0.0000000000e+00 +1.0570770095e+03 1.0570770095e+03 0.0000000000e+00 0.0000e+00 1.0000e+00
       21 -1    0    0  504  503 -0.0000000000e+00 -0.0000000000e+00 -1.1701640346e+03 1.1701640346e+03 0.0000000000e+00 0.0000e+00 1.0000e+00
        6  1    1    2  501    0 -2.1095022875e+02 +1.8339190957e+01 +7.8956998398e+02 8.3557530153e+02 1.7300000000e+02 0.0000e+00 1.0000e+00
       -6  1    1    2    0  503 +9.8841314147e+01 -3.6895179072e+02 -2.9052991754e+02 5.1012906430e+02 1.7300000000e+02 0.0000e+00 1.0000e+00
       21  1    1    2  504  505 +5.7302832100e+01 +6.5772413086e+01 -5.8358748269e+02 5.9007116083e+02 0.0000000000e+00 0.0000e+00 1.0000e+00
       21  1    1    2  505  502 +5.4806082500e+01 +2.8484018668e+02 -2.8539608856e+01 2.9146551751e+02 0.0000000000e+00 0.0000e+00 1.0000e+00
<mgrwt>
<rscale>  4 0.33849000E+03</rscale>
<asrwt>0</asrwt>
<pdfrwt beam="1">  1       21 0.16262723E+00 0.36414009E+03</pdfrwt>
<pdfrwt beam="2">  1       21 0.18002524E+00 0.36414009E+03</pdfrwt>
<totfact> 0.36123828E+01</totfact>
</mgrwt>
</event>
<event>
 6      1 +2.5168323e+02 3.78869000e+02 7.54677100e-03 1.15942100e-01
       21 -1    0    0  503  502 +0.0000000000e+00 +0.0000000000e+00 +9.1041648982e+02 9.1041648982e+02 0.0000000000e+00 0.0000e+00 -1.0000e+00
       21 -1    0    0  501  503 -0.0000000000e+00 -0.0000000000e+00 -3.5111059370e+02 3.5111059370e+02 0.0000000000e+00 0.0000e+00 1.0000e+00
        6  1    1    2  501    0 +1.1788348651e+02 -2.7596118185e+02 +4.7873294830e+02 5.9090212901e+02 1.7300000000e+02 0.0000e+00 1.0000e+00
       -6  1    1    2    0  505 -9.4646983750e+01 -7.3045980226e+01 +1.9649938380e+02 2.8781031009e+02 1.7300000000e+02 0.0000e+00 -1.0000e+00
       21  1    1    2  504  502 -5.8954835569e+01 +2.7485082325e+02 -1.0360455184e+02 2.9958730087e+02 0.0000000000e+00 0.0000e+00 1.0000e+00
       21  1    1    2  505  504 +3.5718332806e+01 +7.4156338822e+01 -1.2321884140e+01 8.3227343552e+01 0.0000000000e+00 0.0000e+00 1.0000e+00
<mgrwt>
<rscale>  4 0.32701865E+03</rscale>
<asrwt>0</asrwt>
<pdfrwt beam="1">  1       21 0.14006407E+00 0.37886897E+03</pdfrwt>
<pdfrwt beam="2">  1       21 0.54017015E-01 0.37886897E+03</pdfrwt>
<totfact> 0.10126792E+03</totfact>
</mgrwt>
</event>
<event>
 6      1 +2.5168323e+02 1.74131900e+02 7.54677100e-03 1.16820100e-01
       21 -1    0    0  504  502 +0.0000000000e+00 +0.0000000000e+00 +1.7249492983e+02 1.7249492983e+02 0.0000000000e+00 0.0000e+00 1.0000e+00
       21 -1    0    0  501  503 -0.0000000000e+00 -0.0000000000e+00 -1.4088062129e+03 1.4088062129e+03 0.0000000000e+00 0.0000e+00 -1.0000e+00
        6  1    1    2  501    0 +3.3396883798e+01 +2.8135865207e+01 -8.2316577091e+02 8.4228134561e+02 1.7300000000e+02 0.0000e+00 -1.0000e+00
       -6  1    1    2    0  505 +2.9422193152e+01 +5.1965991940e+01 -2.7805100044e+02 3.3287758803e+02 1.7300000000e+02 0.0000e+00 1.0000e+00
       21  1    1    2  504  503 -1.1787568636e+01 -5.0132195866e+01 -2.6152433670e+02 2.6654673610e+02 0.0000000000e+00 0.0000e+00 1.0000e+00
       21  1    1    2  505  502 -5.1031508314e+01 -2.9969661281e+01 +1.2642982498e+02 1.3959547300e+02 0.0000000000e+00 0.0000e+00 1.0000e+00
<mgrwt>
<rscale>  4 0.17413195E+03</rscale>
<asrwt>0</asrwt>
<pdfrwt beam="1">  1       21 0.26537681E-01 0.17413195E+03</pdfrwt>
<pdfrwt beam="2">  1       21 0.21673942E+00 0.17413195E+03</pdfrwt>
<totfact> 0.14545148E+03</totfact>
</mgrwt>
</event>
<event>
 6      1 +2.5168323e+02 1.89454100e+02 7.54677100e-03 1.17132900e-01
       21 -1    0    0  505  502 +0.0000000000e+00 +0.0000000000e+00 +3.8506000288e+02 3.8506000288e+02 0.0000000000e+00 0.0000e+00 -1.0000e+00
       21 -1    0    0  504  503 -0.0000000000e+00 -0.0000000000e+00 -4.6869182912e+02 4.6869182912e+02 0.0000000000e+00 0.0000e+00 -1.0000e+00
        6  1    1    2  501    0 -6.5758237699e+01 -1.1444927101e+02 -2.5207291671e+01 2.1905978411e+02 1.7300000000e+02 0.0000e+00 1.0000e+00
       -6  1    1    2    0  502 +7.5884870346e+01 -5.4418971273e+00 -7.9661934230e+01 2.0509303147e+02 1.7300000000e+02 0.0000e+00 -1.0000e+00
       21  1    1    2  504  501 -2.5957823573e+01 -1.5188817910e+01 -1.8232179176e+02 1.8478567192e+02 0.0000000000e+00 0.0000e+00 -1.0000e+00
       21  1    1    2  505  503 +1.5831190926e+01 +1.3507998604e+02 +2.0355919142e+02 2.4481334451e+02 0.0000000000e+00 0.0000e+00 -1.0000e+00
<mgrwt>
<rscale>  4 0.18945413E+03</rscale>
<asrwt>0</asrwt>
<pdfrwt beam="1">  1       21 0.59240001E-01 0.18945413E+03</pdfrwt>
<pdfrwt beam="2">  1       21 0.72106435E-01 0.18945413E+03</pdfrwt>
<totfact> 0.46331452E+03</totfact>
</mgrwt>
</event>
<event>
 6      1 +2.5168323e+02 1.92529000e+02 7.54677100e-03 1.14278100e-01
       21 -1    0    0  504  502 +0.0000000000e+00 +0.0000000000e+00 +4.3570479623e+02 4.3570479623e+02 0.0000000000e+00 0.0000e+00 -1.0000e+00
       21 -1    0    0  502  503 -0.0000000000e+00 -0.0000000000e+00 -4.3039863577e+02 4.3039863577e+02 0.0000000000e+00 0.0000e+00 -1.0000e+00
        6  1    1    2  501    0 +3.3657947997e+01 -7.6174404491e+01 -3.2117638748e+01 1.9466879586e+02 1.7300000000e+02 0.0000e+00 -1.0000e+00
       -6  1    1    2    0  505 +1.1945592389e+01 +8.7669525308e+01 -2.7214763346e+02 3.3439793247e+02 1.7300000000e+02 0.0000e+00 -1.0000e+00
       21  1    1    2  504  501 +1.1451629553e+01 -2.9638992949e+01 +2.5193780940e+02 2.5393359275e+02 0.0000000000e+00 0.0000e+00 -1.0000e+00
       21  1    1    2  505  503 -5.7055169939e+01 +1.8143872132e+01 +5.7633623260e+01 8.3103110909e+01 0.0000000000e+00 0.0000e+00 -1.0000e+00
<mgrwt>
<rscale>  4 0.19252900E+03</rscale>
<asrwt>0</asrwt>
<pdfrwt beam="1">  1       21 0.67031508E-01 0.19252900E+03</pdfrwt>
<pdfrwt beam="2">  1       21 0.66215174E-01 0.19252900E+03</pdfrwt>
<totfact> 0.42665686E+03</totfact>
</mgrwt>
</event>
<event>
 6      1 +2.5168323e+02 1.78076000e+02 7.54677100e-03 1.03924000e-01
       21 -1    0    0  504  502 +0.0000000000e+00 +0.0000000000e+00 +7.5299298529e+01 7.5299298529e+01 0.0000000000e+00 0.0000e+00 1.0000e+00
       21 -1    0    0  501  503 -0.0000000000e+00 -0.0000000000e+00 -2.0902107614e+03 2.0902107614e+03 0.0000000000e+00 0.0000e+00 1.0000e+00
        6  1    1    2  501    0 -4.4317642192e+01 -3.7666749269e+00 -1.7637117950e+03 1.7727341981e+03 1.7300000000e+02 0.0000e+00 1.0000e+00
       -6  1    1    2    0  505 +3.0163529507e+01 -1.7174553453e+01 -2.7614093773e+02 3.2770050548e+02 1.7300000000e+02 0.0000e+00 1.0000e+00
       21  1    1    2  504  503 +2.7971639261e+01 +3.2162727313e+00 +3.0920623477e+01 4.1819157923e+01 0.0000000000e+00 0.0000e+00 1.0000e+00
       21  1    1    2  505  502 -1.3817526576e+01 +1.7724955648e+01 -5.9793535346e+00 2.3256198359e+01 0.0000000000e+00 0.0000e+00 1.0000e+00
<mgrwt>
<rscale>  4 0.17807604E+03</rscale>
<asrwt>0</asrwt>
<pdfrwt beam="1">  1       21 0.11584506E-01 0.17807604E+03</pdfrwt>
<pdfrwt beam="2">  1       21 0.32157092E+00 0.17807604E+03</pdfrwt>
<totfact> 0.16348476E+03</totfact>
</mgrwt>
</event>
<event>
 6      1 +2.5168323e+02 1.92381200e+02 7.54677100e-03 1.11910500e-01
       21 -1    0    0  501  502 +0.0000000000e+00 +0.0000000000e+00 +2.0905947967e+02 2.0905947967e+02 0.0000000000e+00 0.0000e+00 -1.0000e+00
       21 -1    0    0  505  503 -0.0000000000e+00 -0.0000000000e+00 -4.7262625487e+02 4.7262625487e+02 0.0000000000e+00 0.0000e+00 -1.0000e+00
        6  1    1    2  501    0 -2.0390611699e+01 -1.0249941562e+02 +7.0940161502e+01 2.1420414040e+02 1.7300000000e+02 0.0000e+00 -1.0000e+00
       -6  1    1    2    0  504 +7.4799295492e+01 +1.4017259555e+01 -1.0978366158e+02 2.1857005861e+02 1.7300000000e+02 0.0000e+00 -1.0000e+00
       21  1    1    2  504  503 -1.2153852252e+01 +2.4753343759e+01 -8.8478126505e+01 9.2675903133e+01 0.0000000000e+00 0.0000e+00 -1.0000e+00
       21  1    1    2  505  502 -4.2254831541e+01 +6.3728812310e+01 -1.3624514862e+02 1.5623563240e+02 0.0000000000e+00 0.0000e+00 1.0000e+00
<mgrwt>
<rscale>  4 0.19238117E+03</rscale>
<asrwt>0</asrwt>
<pdfrwt beam="1">  1       21 0.32162997E-01 0.19238117E+03</pdfrwt>
<pdfrwt beam="2">  1       21 0.72711732E-01 0.19238117E+03</pdfrwt>
<totfact> 0.15844262E+04</totfact>
</mgrwt>
</event>
<event>
 6      1 +2.5168323e+02 2.51124500e+02 7.54677100e-03 1.03924000e-01
       21 -1    0    0  503  502 +0.0000000000e+00 +0.0000000000e+00 +7.7906786067e+02 7.7906786067e+02 0.0000000000e+00 0.0000e+00 1.0000e+00
       21 -1    0    0  504  503 -0.0000000000e+00 -0.0000000000e+00 -1.2523297178e+02 1.2523297178e+02 0.0000000000e+00 0.0000e+00 1.0000e+00
        6  1    1    2  501    0 +4.2152872518e+00 +1.5812455116e+02 +1.7916308919e+02 2.9504161547e+02 1.7300000000e+02 0.0000e+00 1.0000e+00
       -6  1    1    2    0  505 +4.5708542513e+01 -2.1307062302e+02 +2.6686761203e+02 3.8553298640e+02 1.7300000000e+02 0.0000e+00 1.0000e+00
       21  1    1    2  504  501 -2.5567731283e+01 +7.8451107263e+00 +4.3362641781e+01 5.0946769746e+01 0.0000000000e+00 0.0000e+00 -1.0000e+00
       21  1    1    2  505  502 -2.4356098482e+01 +4.7100961127e+01 +1.6444154588e+02 1.7277946083e+02 0.0000000000e+00 0.0000e+00 -1.0000e+00
<mgrwt>
<rscale>  4 0.25112453E+03</rscale>
<asrwt>0</asrwt>
<pdfrwt beam="1">  1       21 0.11985659E+00 0.25112453E+03</pdfrwt>
<pdfrwt beam="2">  1       21 0.19266611E-01 0.25112453E+03</pdfrwt>
<totfact> 0.12637466E+04</totfact>
</mgrwt>
</event>
<event>
 6      1 +2.5168323e+02 2.20407200e+02 7.54677100e-03 1.17132900e-01
       21 -1    0    0  505  502 +0.0000000000e+00 +0.0000000000e+00 +9.2207181540e+02 9.2207181540e+02 0.0000000000e+00 0.0000e+00 1.0000e+00
       21 -1    0    0  504  503 -0.0000000000e+00 -0.0000000000e+00 -9.1049676302e+01 9.1049676302e+01 0.0000000000e+00 0.0000e+00 -1.0000e+00
        6  1    1    2  501    0 -9.3613344015e+01 -1.4339430335e+02 +4.1337153940e+02 4.7971909906e+02 1.7300000000e+02 0.0000e+00 1.0000e+00
       -6  1    1    2    0  502 +4.5433631255e+01 +9.8109284241e+01 +1.9750086066e+02 2.8394583368e+02 1.7300000000e+02 0.0000e+00 -1.0000e+00
       21  1    1    2  504  501 +2.5256018736e+01 +1.4236526140e+01 +3.2772707118e+00 2.9176800069e+01 0.0000000000e+00 0.0000e+00 1.0000e+00
       21  1    1    2  505  503 +2.2923694024e+01 +3.1048492970e+01 +2.1687246832e+02 2.2027975890e+02 0.0000000000e+00 0.0000e+00 1.0000e+00
<mgrwt>
<rscale>  4 0.22040722E+03</rscale>
<asrwt>0</asrwt>
<pdfrwt beam="1">  1       21 0.14185720E+00 0.22040722E+03</pdfrwt>
<pdfrwt beam="2">  1       21 0.14007643E-01 0.22040722E+03</pdfrwt>
<totfact> 0.15077129E+04</totfact>
</mgrwt>
</event>
<event>
 6      1 +2.5168323e+02 2.16498600e+02 7.54677100e-03 1.16519500e-01
       21 -1    0    0  505  502 +0.0000000000e+00 +0.0000000000e+00 +2.6047947287e+03 2.6047947287e+03 0.0000000000e+00 0.0000e+00 1.0000e+00
       21 -1    0    0  504  503 -0.0000000000e+00 -0.0000000000e+00 -7.8939241801e+01 7.8939241801e+01 0.0000000000e+00 0.0000e+00 1.0000e+00
        6  1    1    2  501    0 -4.4694005364e+01 -1.2943899799e+02 +9.8814525160e+01 2.4175466634e+02 1.7300000000e+02 0.0000e+00 1.0000e+00
       -6  1    1    2    0  503 -8.3337343882e+00 +6.7597471295e+01 +1.7214519652e+03 1.7314631783e+03 1.7300000000e+02 0.0000e+00 1.0000e+00
       21  1    1    2  504  502 +1.8260178861e+01 +2.9902223565e+01 +2.4081523432e+02 2.4335068150e+02 0.0000000000e+00 0.0000e+00 1.0000e+00
       21  1    1    2  505  501 +3.4767560890e+01 +3.1939303125e+01 +4.6477376225e+02 4.6716544441e+02 0.0000000000e+00 0.0000e+00 1.0000e+00
<mgrwt>
<rscale>  4 0.21649865E+03</rscale>
<asrwt>0</asrwt>
<pdfrwt beam="1">  1       21 0.40073759E+00 0.21649865E+03</pdfrwt>
<pdfrwt beam="2">  1       21 0.12144501E-01 0.21649865E+03</pdfrwt>
<totfact> 0.47726405E+02</totfact>
</mgrwt>
</event>
<event>
 6      1 +2.5168323e+02 1.76364200e+02 7.54677100e-03 1.14278100e-01
       21 -1    0    0  501  502 +0.0000000000e+00 +0.0000000000e+00 +6.4195816271e+02 6.4195816271e+02 0.0000000000e+00 0.0000e+00 -1.0000e+00
       21 -1    0    0  504  503 -0.0000000000e+00 -0.0000000000e+00 -1.0201041229e+02 1.0201041229e+02 0.0000000000e+00 0.0000e+00 1.0000e+00
        6  1    1    2  501    0 +4.0163560147e+01 -1.0933197979e+01 +1.9340439211e+02 2.6280583188e+02 1.7300000000e+02 0.0000e+00 -1.0000e+00
       -6  1    1    2    0  505 -2.6294213660e+01 -2.7917734509e+01 +5.8829870361e+01 1.8671030828e+02 1.7300000000e+02 0.0000e+00 -1.0000e+00
       21  1    1    2  504  502 -1.3529359020e+01 +1.8719852644e+01 +4.2137961043e+01 4.8052931226e+01 0.0000000000e+00 0.0000e+00 1.0000e+00
       21  1    1    2  505  503 -3.3998746681e-01 +2.0131079844e+01 +2.4557552690e+02 2.4639950361e+02 0.0000000000e+00 0.0000e+00 -1.0000e+00
<mgrwt>
<rscale>  4 0.17636415E+03</rscale>
<asrwt>0</asrwt>
<pdfrwt beam="1">  1       21 0.98762792E-01 0.17636415E+03</pdfrwt>
<pdfrwt beam="2">  1       21 0.15693910E-01 0.17636415E+03</pdfrwt>
<totfact> 0.30823751E+04</totfact>
</mgrwt>
</event>
<event>
 6      1 +2.5168323e+02 2.19220400e+02 7.54677100e-03 1.12989000e-01
       21 -1    0    0  505  502 +0.0000000000e+00 +0.0000000000e+00 +7.9964922701e+02 7.9964922701e+02 0.0000000000e+00 0.0000e+00 1.0000e+00
       21 -1    0    0  501  503 -0.0000000000e+00 -0.0000000000e+00 -1.4508548573e+02 1.4508548573e+02 0.0000000000e+00 0.0000e+00 1.0000e+00
        6  1    1    2  501    0 +3.8435118136e+00 +1.2870453621e+02 +1.6710155195e+02 2.7282147805e+02 1.7300000000e+02 0.0000e+00 1.0000e+00
       -6  1    1    2    0  502 -4.3931127484e+01 -1.3172194765e+02 +5.1851136441e+02 5.6397132062e+02 1.7300000000e+02 0.0000e+00 1.0000e+00
       21  1    1    2  504  503 +5.5405175596e+01 -1.7179847853e+01 -4.9767633458e+01 7.6431001532e+01 0.0000000000e+00 0.0000e+00 -1.0000e+00
       21  1    1    2  505  504 -1.5317559925e+01 +2.0197259299e+01 +1.8718458368e+01 3.1510912537e+01 0.0000000000e+00 0.0000e+00 1.0000e+00
<mgrwt>
<rscale>  4 0.21922041E+03</rscale>
<asrwt>0</asrwt>
<pdfrwt beam="1">  1       21 0.12302296E+00 0.21922041E+03</pdfrwt>
<pdfrwt beam="2">  1       21 0.22320844E-01 0.21922041E+03</pdfrwt>
<totfact> 0.91493531E+03</totfact>
</mgrwt>
</event>
<event>
 6      1 +2.5168323e+02 2.07613100e+02 7.54677100e-03 1.11910500e-01
       21 -1    0    0  501  502 +0.0000000000e+00 +0.0000000000e+00 +1.0316493836e+03 1.0316493836e+03 0.0000000000e+00 0.0000e+00 1.0000e+00
       21 -1    0    0  505  503 -0.0000000000e+00 -0.0000000000e+00 -1.2977471940e+02 1.2977471940e+02 0.0000000000e+00 0.0000e+00 1.0000e+00
        6  1    1    2  501    0 +5.9306622887e+01 -4.2212404280e+01 +3.7061912935e+02 4.1543555653e+02 1.7300000000e+02 0.0000e+00 1.0000e+00
       -6  1    1    2    0  504 -1.0070157148e+02 +1.2328027532e+02 +5.8488156356e+02 6.3036043354e+02 1.7300000000e+02 0.0000e+00 1.0000e+00
       21  1    1    2  504  503 -6.7612224752e+00 -2.0378573092e+01 -2.5193743008e+01 3.3101737982e+01 0.0000000000e+00 0.0000e+00 1.0000e+00
       21  1    1    2  505  502 +4.8156171073e+01 -6.0689297950e+01 -2.8432285673e+01 8.2526374976e+01 0.0000000000e+00 0.0000e+00 1.0000e+00
<mgrwt>
<rscale>  4 0.20761314E+03</rscale>
<asrwt>0</asrwt>
<pdfrwt beam="1">  1       21 0.15871528E+00 0.20761314E+03</pdfrwt>
<pdfrwt beam="2">  1       21 0.19965342E-01 0.20761314E+03</pdfrwt>
<totfact> 0.58837795E+03</totfact>
</mgrwt>
</event>
<event>
 6      1 +2.5168323e+02 1.82722800e+02 7.54677100e-03 1.03924000e-01
       21 -1    0    0  501  502 +0.0000000000e+00 +0.0000000000e+00 +1.4981833771e+02 1.4981833771e+02 0.0000000000e+00 0.0000e+00 -1.0000e+00
       21 -1    0    0  502  503 -0.0000000000e+00 -0.0000000000e+00 -9.5869536752e+02 9.5869536752e+02 0.0000000000e+00 0.0000e+00 -1.0000e+00
        6  1    1    2  501    0 +1.1596386611e+02 -1.4646856653e+02 -7.3425952951e+01 2.6499250893e+02 1.7300000000e+02 0.0000e+00 -1.0000e+00
       -6  1    1    2    0  505 -4.9318269291e+01 -5.1655523856e+00 -6.0493285087e+02 6.3113526971e+02 1.7300000000e+02 0.0000e+00 -1.0000e+00
       21  1    1    2  504  503 -1.4733741232e+01 +2.2160753322e+01 -3.1956331593e+01 4.1585926074e+01 0.0000000000e+00 0.0000e+00 1.0000e+00
       21  1    1    2  505  504 -5.1911855585e+01 +1.2947336559e+02 -9.8561894396e+01 1.7080000051e+02 0.0000000000e+00 0.0000e+00 -1.0000e+00
<mgrwt>
<rscale>  4 0.18272281E+03</rscale>
<asrwt>0</asrwt>
<pdfrwt beam="1">  1       21 0.23048974E-01 0.18272281E+03</pdfrwt>
<pdfrwt beam="2">  1       21 0.14749160E+00 0.18272281E+03</pdfrwt>
<totfact> 0.55690881E+03</totfact>
</mgrwt>
</event>
<event>
 6      1 +2.5168323e+02 1.91720300e+02 7.54677100e-03 1.15942100e-01
       21 -1    0    0  504  502 +0.0000000000e+00 +0.0000000000e+00 +9.8680039581e+01 9.8680039581e+01 0.0000000000e+00 0.0000e+00 -1.0000e+00
       21 -1    0    0  501  503 -0.0000000000e+00 -0.0000000000e+00 -1.2908057959e+03 1.2908057959e+03 0.0000000000e+00 0.0000e+00 -1.0000e+00
        6  1    1    2  501    0 -3.5364145183e+01 -8.4693183971e+01 -3.4363016551e+01 1.9883001555e+02 1.7300000000e+02 0.0000e+00 -1.0000e+00
       -6  1    1    2    0  502 -3.8518918348e+00 +4.5806459885e+01 -5.1172174465e+02 5.4212656528e+02 1.7300000000e+02 0.0000e+00 -1.0000e+00
       21  1    1    2  504  505 +1.3767014434e+01 +1.9029679366e+01 -2.1430816315e+02 2.1559139170e+02 0.0000000000e+00 0.0000e+00 -1.0000e+00
       21  1    1    2  505  503 +2.5449022585e+01 +1.9857044720e+01 -4.3173283194e+02 4.3293786292e+02 0.0000000000e+00 0.0000e+00 -1.0000e+00
<mgrwt>
<rscale>  4 0.19172034E+03</rscale>
<asrwt>0</asrwt>
<pdfrwt beam="1">  1       21 0.15181544E-01 0.19172034E+03</pdfrwt>
<pdfrwt beam="2">  1       21 0.19858551E+00 0.19172034E+03</pdfrwt>
<totfact> 0.52666892E+03</totfact>
</mgrwt>
</event>
<event>
 6      1 +2.5168323e+02 2.44358600e+02 7.54677100e-03 1.12068800e-01
       21 -1    0    0  504  502 +0.0000000000e+00 +0.0000000000e+00 +5.9953648620e+02 5.9953648620e+02 0.0000000000e+00 0.0000e+00 1.0000e+00
       21 -1    0    0  502  503 -0.0000000000e+00 -0.0000000000e+00 -2.7678860128e+02 2.7678860128e+02 0.0000000000e+00 0.0000e+00 1.0000e+00
        6  1    1    2  501    0 +8.0690684588e+01 +8.1788056891e+01 +1.1609566632e+02 2.3792325773e+02 1.7300000000e+02 0.0000e+00 1.0000e+00
       -6  1    1    2    0  505 -3.7294962151e+00 +1.1898147031e+02 +2.7532600305e+02 3.4627143598e+02 1.7300000000e+02 0.0000e+00 1.0000e+00
       21  1    1    2  504  501 -1.3825617362e+02 -1.4705195165e+02 -4.0246600309e+01 2.0581262076e+02 0.0000000000e+00 0.0000e+00 1.0000e+00
       21  1    1    2  505  503 +6.1294985245e+01 -5.3717575557e+01 -2.8427184143e+01 8.6317773014e+01 0.0000000000e+00 0.0000e+00 1.0000e+00
<mgrwt>
<rscale>  4 0.23393649E+03</rscale>
<asrwt>0</asrwt>
<pdfrwt beam="1">  1       21 0.92236382E-01 0.24435855E+03</pdfrwt>
<pdfrwt beam="2">  1       21 0.42582862E-01 0.24435855E+03</pdfrwt>
<totfact> 0.50734572E+03</totfact>
</mgrwt>
</event>
<event>
 6      1 +2.5168323e+02 3.37744400e+02 7.54677100e-03 1.03924000e-01
       21 -1    0    0  504  502 +0.0000000000e+00 +0.0000000000e+00 +5.0863401866e+02 5.0863401866e+02 0.0000000000e+00 0.0000e+00 1.0000e+00
       21 -1    0    0  501  503 -0.0000000000e+00 -0.0000000000e+00 -2.3585016729e+03 2.3585016729e+03 0.0000000000e+00 0.0000e+00 -1.0000e+00
        6  1    1    2  501    0 -3.2930741077e+02 -2.5422241757e+02 -1.0452702038e+03 1.1382403997e+03 1.7300000000e+02 0.0000e+00 1.0000e+00
       -6  1    1    2    0  505 +1.3202232130e+01 +2.7234979776e+02 -1.1683744410e+03 1.2121784298e+03 1.7300000000e+02 0.0000e+00 -1.0000e+00
       21  1    1    2  504  503 -2.1959844387e+01 +1.3954142899e+00 +3.5027302847e+00 2.2281181881e+01 0.0000000000e+00 0.0000e+00 1.0000e+00
       21  1    1    2  505  502 +3.3806502303e+02 -1.9522794478e+01 +3.6027426028e+02 4.9443568026e+02 0.0000000000e+00 0.0000e+00 1.0000e+00
<mgrwt>
<rscale>  4 0.33774438E+03</rscale>
<asrwt>0</asrwt>
<pdfrwt beam="1">  1       21 0.78251388E-01 0.33774438E+03</pdfrwt>
<pdfrwt beam="2">  1       21 0.36284641E+00 0.33774438E+03</pdfrwt>
<totfact> 0.17171631E+01</totfact>
</mgrwt>
</event>
<event>
 6      1 +2.5168323e+02 2.31339600e+02 7.54677100e-03 1.11910500e-01
       21 -1    0    0  501  502 +0.0000000000e+00 +0.0000000000e+00 +2.7620472031e+02 2.7620472031e+02 0.0000000000e+00 0.0000e+00 1.0000e+00
       21 -1    0    0  504  503 -0.0000000000e+00 -0.0000000000e+00 -8.2804439535e+02 8.2804439535e+02 0.0000000000e+00 0.0000e+00 1.0000e+00
        6  1    1    2  501    0 -3.6343357866e+01 -1.1193888003e+02 +4.7576303752e+01 2.1457785814e+02 1.7300000000e+02 0.0000e+00 1.0000e+00
       -6  1    1    2    0  503 +2.3880165437e+02 +1.1933667860e+02 -9.7145076198e+01 3.3261635381e+02 1.7300000000e+02 0.0000e+00 1.0000e+00
       21  1    1    2  504  505 -3.0822309516e+01 +1.8700148731e+01 -1.3719158214e+01 3.8573639037e+01 0.0000000000e+00 0.0000e+00 1.0000e+00
       21  1    1    2  505  502 -1.7163598699e+02 -2.6097947298e+01 -4.8855174438e+02 5.1848126468e+02 0.0000000000e+00 0.0000e+00 1.0000e+00
<mgrwt>
<rscale>  4 0.23133963E+03</rscale>
<asrwt>0</asrwt>
<pdfrwt beam="1">  1       21 0.42493035E-01 0.23133963E+03</pdfrwt>
<pdfrwt beam="2">  1       21 0.12739144E+00 0.23133963E+03</pdfrwt>
<totfact> 0.23449061E+03</totfact>
</mgrwt>
</event>
<event>
 6      1 +2.5168323e+02 2.25598300e+02 7.54677100e-03 1.08009500e-01
       21 -1    0    0  503  502 +0.0000000000e+00 +0.0000000000e+00 +3.2524440852e+02 3.2524440852e+02 0.0000000000e+00 0.0000e+00 -1.0000e+00
       21 -1    0    0  504  503 -0.0000000000e+00 -0.0000000000e+00 -7.4185571033e+02 7.4185571033e+02 0.0000000000e+00 0.0000e+00 1.0000e+00
        6  1    1    2  501    0 +1.3071011882e+02 +1.1045590977e+02 -1.9285521351e+01 2.4410361427e+02 1.7300000000e+02 0.0000e+00 -1.0000e+00
       -6  1    1    2    0  505 -1.2852988017e+02 -4.2855452584e+01 +1.1955870393e+02 2.5015955628e+02 1.7300000000e+02 0.0000e+00 -1.0000e+00
       21  1    1    2  504  501 +1.7447416841e+01 -6.2157143517e+01 -9.7475883514e+00 6.5291181053e+01 0.0000000000e+00 0.0000e+00 -1.0000e+00
       21  1    1    2  505  502 -1.9627655493e+01 -5.4433136715e+00 -5.0713689604e+02 5.0754576725e+02 0.0000000000e+00 0.0000e+00 1.0000e+00
<mgrwt>
<rscale>  4 0.22559832E+03</rscale>
<asrwt>0</asrwt>
<pdfrwt beam="1">  1       21 0.50037603E-01 0.22559832E+03</pdfrwt>
<pdfrwt beam="2">  1       21 0.11413165E+00 0.22559832E+03</pdfrwt>
<totfact> 0.22084299E+03</totfact>
</mgrwt>
</event>
<event>
 6      1 +2.5168323e+02 2.71942500e+02 7.54677100e-03 1.03924000e-01
       21 -1    0    0  503  502 +0.0000000000e+00 +0.0000000000e+00 +1.7226687902e+02 1.7226687902e+02 0.0000000000e+00 0.0000e+00 1.0000e+00
       21 -1    0    0  504  503 -0.0000000000e+00 -0.0000000000e+00 -9.2546549375e+02 9.2546549375e+02 0.0000000000e+00 0.0000e+00 -1.0000e+00
        6  1    1    2  501    0 -1.9531428870e+02 +1.3402120307e+02 -6.0841743204e+01 2.9956647336e+02 1.7300000000e+02 0.0000e+00 1.0000e+00
       -6  1    1    2    0  505 +3.4289494151e+01 -7.4945864402e+01 -4.4622494581e+02 4.8563191232e+02 1.7300000000e+02 0.0000e+00 -1.0000e+00
       21  1    1    2  504  501 +7.3704908063e+01 -4.9947275489e+01 -1.8572795090e+02 2.0596605436e+02 0.0000000000e+00 0.0000e+00 1.0000e+00
       21  1    1    2  505  502 +8.7319886489e+01 -9.1280631804e+00 -6.0403974817e+01 1.0656793274e+02 0.0000000000e+00 0.0000e+00 -1.0000e+00
<mgrwt>
<rscale>  4 0.24915702E+03</rscale>
<asrwt>0</asrwt>
<pdfrwt beam="1">  1       21 0.26502598E-01 0.27194252E+03</pdfrwt>
<pdfrwt beam="2">  1       21 0.14237930E+00 0.27194252E+03</pdfrwt>
<totfact> 0.43795855E+03</totfact>
</mgrwt>
</event>
<event>
 6      1 +2.5168323e+02 3.33989000e+02 7.54677100e-03 1.16820100e-01
       21 -1    0    0  505  502 +0.0000000000e+00 +0.0000000000e+00 +2.2380442139e+03 2.2380442139e+03 0.0000000000e+00 0.0000e+00 1.0000e+00
       21 -1    0    0  504  503 -0.0000000000e+00 -0.0000000000e+00 -3.8116740412e+02 3.8116740412e+02 0.0000000000e+00 0.0000e+00 -1.0000e+00
        6  1    1    2  501    0 +2.0734317661e+02 +2.0883441617e+02 +1.8723984595e+03 1.9032624615e+03 1.7300000000e+02 0.0000e+00 1.0000e+00
       -6  1    1    2    0  503 -1.3868464511e+02 -2.1083796283e+02 -2.4145682568e+02 3.8976464184e+02 1.7300000000e+02 0.0000e+00 -1.0000e+00
       21  1    1    2  504  502 -5.0022936962e+01 -5.5558924963e+00 -3.7008872642e+01 6.2472544513e+01 0.0000000000e+00 0.0000e+00 1.0000e+00
       21  1    1    2  505  501 -1.8635594544e+01 +7.5594391527e+00 +2.6294404861e+02 2.6371197015e+02 0.0000000000e+00 0.0000e+00 -1.0000e+00
<mgrwt>
<rscale>  4 0.33398900E+03</rscale>
<asrwt>0</asrwt>
<pdfrwt beam="1">  1       21 0.34431449E+00 0.33398900E+03</pdfrwt>
<pdfrwt beam="2">  1       21 0.58641140E-01 0.33398900E+03</pdfrwt>
<totfact> 0.42451939E+01</totfact>
</mgrwt>
</event>
<event>
 6      1 +2.5168323e+02 1.90027900e+02 7.54677100e-03 1.16820100e-01
       21 -1    0    0  505  502 +0.0000000000e+00 +0.0000000000e+00 +3.0744995295e+02 3.0744995295e+02 0.0000000000e+00 0.0000e+00 -1.0000e+00
       21 -1    0    0  501  503 -0.0000000000e+00 -0.0000000000e+00 -3.1361698410e+02 3.1361698410e+02 0.0000000000e+00 0.0000e+00 -1.0000e+00
        6  1    1    2  501    0 -6.1499583483e+01 +7.3699748524e+01 -6.6930068718e+01 2.0885996696e+02 1.7300000000e+02 0.0000e+00 -1.0000e+00
       -6  1    1    2    0  504 -2.6820758469e+01 -8.0626062873e+01 -9.7049381739e+01 2.1579503608e+02 1.7300000000e+02 0.0000e+00 1.0000e+00
       21  1    1    2  504  502 +6.1765967245e+01 +1.8458194909e+01 +4.1774156260e+01 7.6816793738e+01 0.0000000000e+00 0.0000e+00 -1.0000e+00
       21  1    1    2  505  503 +2.6554374706e+01 -1.1531880559e+01 +1.1603826305e+02 1.1959514027e+02 0.0000000000e+00 0.0000e+00 -1.0000e+00
<mgrwt>
<rscale>  4 0.19002795E+03</rscale>
<asrwt>0</asrwt>
<pdfrwt beam="1">  1       21 0.47299993E-01 0.19002795E+03</pdfrwt>
<pdfrwt beam="2">  1       21 0.48248767E-01 0.19002795E+03</pdfrwt>
<totfact> 0.17575897E+04</totfact>
</mgrwt>
</event>
<event>
 6      1 +2.5168323e+02 2.04733600e+02 7.54677100e-03 1.12068800e-01
       21 -1    0    0  504  502 +0.0000000000e+00 +0.0000000000e+00 +2.0461461495e+02 2.0461461495e+02 0.0000000000e+00 0.0000e+00 -1.0000e+00
       21 -1    0    0  502  503 -0.0000000000e+00 -0.0000000000e+00 -4.0560051248e+02 4.0560051248e+02 0.0000000000e+00 0.0000e+00 -1.0000e+00
        6  1    1    2  501    0 -3.3202228295e+00 +1.3430578879e+02 +1.2883119507e+00 2.1904275503e+02 1.7300000000e+02 0.0000e+00 -1.0000e+00
       -6  1    1    2    0  505 +3.9218842928e+01 -1.1545513223e+02 -1.6888743070e+02 2.7077660432e+02 1.7300000000e+02 0.0000e+00 -1.0000e+00
       21  1    1    2  504  501 +1.9161101071e-02 -6.0296934755e+01 -1.1711621628e+01 6.1423796603e+01 0.0000000000e+00 0.0000e+00 -1.0000e+00
       21  1    1    2  505  503 -3.5917781200e+01 +4.1446278194e+01 -2.1675157143e+01 5.8971971474e+01 0.0000000000e+00 0.0000e+00 1.0000e+00
<mgrwt>
<rscale>  4 0.20473357E+03</rscale>
<asrwt>0</asrwt>
<pdfrwt beam="1">  1       21 0.31479172E-01 0.20473357E+03</pdfrwt>
<pdfrwt beam="2">  1       21 0.62400078E-01 0.20473357E+03</pdfrwt>
<totfact> 0.22934381E+04</totfact>
</mgrwt>
</event>
<event>
 6      1 +2.5168323e+02 4.15044600e+02 7.54677100e-03 1.07240600e-01
       21 -1    0    0  505  502 +0.0000000000e+00 +0.0000000000e+00 +1.0080286519e+03 1.0080286519e+03 0.0000000000e+00 0.0000e+00 1.0000e+00
       21 -1    0    0  504  503 -0.0000000000e+00 -0.0000000000e+00 -8.2851933808e+02 8.2851933808e+02 0.0000000000e+00 0.0000e+00 1.0000e+00
        6  1    1    2  501    0 +2.9488151347e+02 -1.3124721787e+02 +6.2000471673e+02 7.2008040381e+02 1.7300000000e+02 0.0000e+00 1.0000e+00
       -6  1    1    2    0  502 -1.2232941260e+02 +3.9048190189e+02 -4.4907635477e+02 6.3169547513e+02 1.7300000000e+02 0.0000e+00 1.0000e+00
       21  1    1    2  504  501 -1.4674009668e+02 -2.3251102238e+02 +1.6724564189e+02 3.2181537601e+02 0.0000000000e+00 0.0000e+00 1.0000e+00
       21  1    1    2  505  503 -2.5812004186e+01 -2.6723661633e+01 -1.5866469000e+02 1.6295673507e+02 0.0000000000e+00 0.0000e+00 1.0000e+00
<mgrwt>
<rscale>  4 0.41504461E+03</rscale>
<asrwt>0</asrwt>
<pdfrwt beam="1">  1       21 0.15508133E+00 0.41504461E+03</pdfrwt>
<pdfrwt beam="2">  1       21 0.12746451E+00 0.41504461E+03</pdfrwt>
<totfact> 0.10169173E+02</totfact>
</mgrwt>
</event>
<event>
 6      1 +2.5168323e+02 2.11722000e+02 7.54677100e-03 1.16820100e-01
       21 -1    0    0  505  502 +0.0000000000e+00 +0.0000000000e+00 +9.1745682023e+01 9.1745682023e+01 0.0000000000e+00 0.0000e+00 -1.0000e+00
       21 -1    0    0  501  503 -0.0000000000e+00 -0.0000000000e+00 -1.2522721566e+03 1.2522721566e+03 0.0000000000e+00 0.0000e+00 -1.0000e+00
        6  1    1    2  501    0 -1.8507438923e+01 +1.4967023703e+02 -6.4061487962e+02 6.8048521596e+02 1.7300000000e+02 0.0000e+00 -1.0000e+00
       -6  1    1    2    0  502 -1.2306355663e+01 -9.5213930706e+01 -4.8702880358e+02 5.2568354978e+02 1.7300000000e+02 0.0000e+00 -1.0000e+00
       21  1    1    2  504  503 +3.0135749016e+01 -3.4211183360e+01 -7.6897500688e+01 8.9396834662e+01 0.0000000000e+00 0.0000e+00 -1.0000e+00
       21  1    1    2  505  504 +6.7804557030e-01 -2.0245122963e+01 +4.4014709331e+01 4.8452238205e+01 0.0000000000e+00 0.0000e+00 -1.0000e+00
<mgrwt>
<rscale>  4 0.21172202E+03</rscale>
<asrwt>0</asrwt>
<pdfrwt beam="1">  1       21 0.14114721E-01 0.21172202E+03</pdfrwt>
<pdfrwt beam="2">  1       21 0.19265725E+00 0.21172202E+03</pdfrwt>
<totfact> 0.64574955E+03</totfact>
</mgrwt>
</event>
<event>
 6      1 +2.5168323e+02 1.75717800e+02 7.54677100e-03 1.09588500e-01
       21 -1    0    0  505  502 +0.0000000000e+00 +0.0000000000e+00 +1.7241660257e+02 1.7241660257e+02 0.0000000000e+00 0.0000e+00 -1.0000e+00
       21 -1    0    0  502  503 -0.0000000000e+00 -0.0000000000e+00 -1.4349505952e+03 1.4349505952e+03 0.0000000000e+00 0.0000e+00 -1.0000e+00
        6  1    1    2  501    0 +2.3309437623e+01 -3.1017722111e+01 +5.5903599792e+01 1.8590223623e+02 1.7300000000e+02 0.0000e+00 -1.0000e+00
       -6  1    1    2    0  504 -2.4123320334e+01 +5.7714363304e+01 -1.7627376933e+02 2.5478289595e+02 1.7300000000e+02 0.0000e+00 -1.0000e+00
       21  1    1    2  504  503 -1.4978411995e+01 +2.2845774836e+01 -4.3282076818e+00 2.7658916022e+01 0.0000000000e+00 0.0000e+00 1.0000e+00
       21  1    1    2  505  501 +1.5792294706e+01 -4.9542416029e+01 -1.1378356154e+03 1.1390231496e+03 0.0000000000e+00 0.0000e+00 -1.0000e+00
<mgrwt>
<rscale>  4 0.17571775E+03</rscale>
<asrwt>0</asrwt>
<pdfrwt beam="1">  1       21 0.26525630E-01 0.17571775E+03</pdfrwt>
<pdfrwt beam="2">  1       21 0.22076164E+00 0.17571775E+03</pdfrwt>
<totfact> 0.13728973E+03</totfact>
</mgrwt>
</event>
<event>
 6      1 +2.5168323e+02 2.01811300e+02 7.54677100e-03 1.16820100e-01
       21 -1    0    0  504  502 +0.0000000000e+00 +0.0000000000e+00 +1.9431186331e+02 1.9431186331e+02 0.0000000000e+00 0.0000e+00 1.0000e+00
       21 -1    0    0  501  503 -0.0000000000e+00 -0.0000000000e+00 -4.7791195545e+02 4.7791195545e+02 0.0000000000e+00 0.0000e+00 -1.0000e+00
        6  1    1    2  501    0 -5.1799553492e+01 +5.5987631458e+01 -5.5253539852e+01 1.9697655263e+02 1.7300000000e+02 0.0000e+00 1.0000e+00
       -6  1    1    2    0  505 +8.5065323909e+01 -1.0313667756e+02 -5.4713466314e+01 2.2537934019e+02 1.7300000000e+02 0.0000e+00 1.0000e+00
       21  1    1    2  504  503 -1.0170474726e+01 +4.9363050152e+01 -2.0485811199e+02 2.1096681096e+02 0.0000000000e+00 0.0000e+00 -1.0000e+00
       21  1    1    2  505  502 -2.3095295692e+01 -2.2140040520e+00 +3.1225026015e+01 3.8901114979e+01 0.0000000000e+00 0.0000e+00 1.0000e+00
<mgrwt>
<rscale>  4 0.20181126E+03</rscale>
<asrwt>0</asrwt>
<pdfrwt beam="1">  1       21 0.29894133E-01 0.20181126E+03</pdfrwt>
<pdfrwt beam="2">  1       21 0.73524916E-01 0.20181126E+03</pdfrwt>
<totfact> 0.17730520E+04</totfact>
</mgrwt>
</event>
<event>
 6      1 +2.5168323e+02 2.88464100e+02 7.54677100e-03 1.09842800e-01
       21 -1    0    0  505  502 +0.0000000000e+00 +0.0000000000e+00 +3.0478965857e+02 3.0478965857e+02 0.0000000000e+00 0.0000e+00 -1.0000e+00
       21 -1    0    0  502  503 -0.0000000000e+00 -0.0000000000e+00 -3.5494761487e+02 3.5494761487e+02 0.0000000000e+00 0.0000e+00 -1.0000e+00
        6  1    1    2  501    0 +1.5310056965e+02 +1.4964302314e+02 -2.7285942038e+01 2.7659779723e+02 1.7300000000e+02 0.0000e+00 -1.0000e+00
       -6  1    1    2    0  503 -1.4985760112e+02 -1.9853387396e+02 -6.1754498623e+01 3.0921775147e+02 1.7300000000e+02 0.0000e+00 -1.0000e+00
       21  1    1    2  504  501 +6.2542910205e+00 +2.8891258720e+01 +4.4496627708e-01 2.9563812027e+01 0.0000000000e+00 0.0000e+00 1.0000e+00
       21  1    1    2  505  504 -9.4972595448e+00 +1.9999592109e+01 +3.8437518082e+01 4.4357912707e+01 0.0000000000e+00 0.0000e+00 -1.0000e+00
<mgrwt>
<rscale>  4 0.28846413E+03</rscale>
<asrwt>0</asrwt>
<pdfrwt beam="1">  1       21 0.46890716E-01 0.28846413E+03</pdfrwt>
<pdfrwt beam="2">  1       21 0.54607326E-01 0.28846413E+03</pdfrwt>
<totfact> 0.13082442E+04</totfact>
</mgrwt>
</event>
<event>
 6      1 +2.5168323e+02 2.87107700e+02 7.54677100e-03 1.14278100e-01
       21 -1    0    0  501  502 +0.0000000000e+00 +0.0000000000e+00 +7.3361737968e+02 7.3361737968e+02 0.0000000000e+00 0.0000e+00 1.0000e+00
       21 -1    0    0  504  503 -0.0000000000e+00 -0.0000000000e+00 -2.5580934671e+02 2.5580934671e+02 0.0000000000e+00 0.0000e+00 1.0000e+00
        6  1    1    2  501    0 -4.9278409837e+01 -9.1023654807e+01 -9.3203960714e+00 2.0181560196e+02 1.7300000000e+02 0.0000e+00 1.0000e+00
       -6  1    1    2    0  505 -1.9645903186e+02 +8.5564804309e+00 +2.3048105114e+02 3.4888376215e+02 1.7300000000e+02 0.0000e+00 -1.0000e+00
       21  1    1    2  504  502 +1.1621133486e+00 -6.5585139758e+01 +7.6657535818e+01 1.0089171850e+02 0.0000000000e+00 0.0000e+00 -1.0000e+00
       21  1    1    2  505  503 +2.4457532835e+02 +1.4805231413e+02 +1.7998984208e+02 3.3783564378e+02 0.0000000000e+00 0.0000e+00 1.0000e+00
<mgrwt>
<rscale>  4 0.26429367E+03</rscale>
<asrwt>0</asrwt>
<pdfrwt beam="1">  1       21 0.11286421E+00 0.28710774E+03</pdfrwt>
<pdfrwt beam="2">  1       21 0.39355284E-01 0.28710774E+03</pdfrwt>
<totfact> 0.35744941E+03</totfact>
</mgrwt>
</event>
<event>
 6      1 +2.5168323e+02 1.81324700e+02 7.54677100e-03 1.11910500e-01
       21 -1    0    0  501  502 +0.0000000000e+00 +0.0000000000e+00 +8.4287691075e+01 8.4287691075e+01 0.0000000000e+00 0.0000e+00 1.0000e+00
       21 -1    0    0  505  503 -0.0000000000e+00 -0.0000000000e+00 -7.3317620108e+02 7.3317620108e+02 0.0000000000e+00 0.0000e+00 1.0000e+00
        6  1    1    2  501    0 +3.6835715117e+01 +4.2227301299e+01 -9.5238535116e+01 2.0527881882e+02 1.7300000000e+02 0.0000e+00 1.0000e+00
       -6  1    1    2    0  504 -6.3126798701e+01 -3.9049827633e+00 -4.2650007076e+02 4.6457674497e+02 1.7300000000e+02 0.0000e+00 1.0000e+00
       21  1    1    2  504  503 -1.8912869843e+01 -1.4787117680e+01 -4.0103543414e+01 4.6740236300e+01 0.0000000000e+00 0.0000e+00 1.0000e+00
       21  1    1    2  505  502 +4.5203953427e+01 -2.3535200856e+01 -8.7046360711e+01 1.0086809207e+02 0.0000000000e+00 0.0000e+00 1.0000e+00
<mgrwt>
<rscale>  4 0.18132466E+03</rscale>
<asrwt>0</asrwt>
<pdfrwt beam="1">  1       21 0.12967337E-01 0.18132466E+03</pdfrwt>
<pdfrwt beam="2">  1       21 0.11279634E+00 0.18132466E+03</pdfrwt>
<totfact> 0.31582210E+04</totfact>
</mgrwt>
</event>
<event>
 6      1 +2.5168323e+02 1.84666100e+02 7.54677100e-03 1.11910500e-01
       21 -1    0    0  501  502 +0.0000000000e+00 +0.0000000000e+00 +7.7219889009e+01 7.7219889009e+01 0.0000000000e+00 0.0000e+00 -1.0000e+00
       21 -1    0    0  505  503 -0.0000000000e+00 -0.0000000000e+00 -8.7067833062e+02 8.7067833062e+02 0.0000000000e+00 0.0000e+00 -1.0000e+00
        6  1    1    2  501    0 +3.1137959631e+01 +6.7524514701e+01 -1.5189384140e+02 2.4192947665e+02 1.7300000000e+02 0.0000e+00 -1.0000e+00
       -6  1    1    2    0  504 +1.0778751744e+01 -5.6444647471e+01 -2.5971795713e+02 3.1730836260e+02 1.7300000000e+02 0.0000e+00 1.0000e+00
       21  1    1    2  504  503 -2.7498200956e+01 -3.4851770733e+01 -2.5051290646e+02 2.5441602403e+02 0.0000000000e+00 0.0000e+00 -1.0000e+00
       21  1    1    2  505  502 -1.4418510419e+01 +2.3771903503e+01 -1.3133373663e+02 1.3424435636e+02 0.0000000000e+00 0.0000e+00 -1.0000e+00
<mgrwt>
<rscale>  4 0.18466609E+03</rscale>
<asrwt>0</asrwt>
<pdfrwt beam="1">  1       21 0.11879983E-01 0.18466609E+03</pdfrwt>
<pdfrwt beam="2">  1       21 0.13395051E+00 0.18466609E+03</pdfrwt>
<totfact> 0.24060865E+04</totfact>
</mgrwt>
</event>
<event>
 6      1 +2.5168323e+02 2.80665900e+02 7.54677100e-03 1.11471900e-01
       21 -1    0    0  503  502 +0.0000000000e+00 +0.0000000000e+00 +1.9452157980e+02 1.9452157980e+02 0.0000000000e+00 0.0000e+00 -1.0000e+00
       21 -1    0    0  501  503 -0.0000000000e+00 -0.0000000000e+00 -1.1355886675e+03 1.1355886675e+03 0.0000000000e+00 0.0000e+00 1.0000e+00
        6  1    1    2  501    0 +6.6919007222e+01 -1.6842696747e+02 -2.5370121361e+02 3.5656570598e+02 1.7300000000e+02 0.0000e+00 -1.0000e+00
       -6  1    1    2    0  504 -1.4378219969e+02 +1.9979902819e+02 -7.3321077207e+02 7.9254022541e+02 1.7300000000e+02 0.0000e+00 1.0000e+00
       21  1    1    2  504  505 +6.3043785955e+01 -9.4728707307e+00 -5.0443610436e+01 8.1294600443e+01 0.0000000000e+00 0.0000e+00 1.0000e+00
       21  1    1    2  505  502 +1.3819406512e+01 -2.1899189994e+01 +9.6288508374e+01 9.9709715493e+01 0.0000000000e+00 0.0000e+00 -1.0000e+00
<mgrwt>
<rscale>  4 0.28066589E+03</rscale>
<asrwt>0</asrwt>
<pdfrwt beam="1">  1       21 0.29926396E-01 0.28066589E+03</pdfrwt>
<pdfrwt beam="2">  1       21 0.17470595E+00 0.28066589E+03</pdfrwt>
<totfact> 0.19685077E+03</totfact>
</mgrwt>
</event>
<event>
 6      1 +2.5168323e+02 5.18979800e+02 7.54677100e-03 1.07240600e-01
       21 -1    0    0  505  502 +0.0000000000e+00 +0.0000000000e+00 +1.1849700464e+03 1.1849700464e+03 0.0000000000e+00 0.0000e+00 1.0000e+00
       21 -1    0    0  504  503 -0.0000000000e+00 -0.0000000000e+00 -1.5936121249e+03 1.5936121249e+03 0.0000000000e+00 0.0000e+00 -1.0000e+00
        6  1    1    2  501    0 +4.5641445602e+02 -1.1309087376e+02 +9.0852486985e+02 1.0375211518e+03 1.7300000000e+02 0.0000e+00 1.0000e+00
       -6  1    1    2    0  502 -6.5902901835e+02 -5.0716017557e+01 -5.4214764252e+02 8.7220664281e+02 1.7300000000e+02 0.0000e+00 -1.0000e+00
       21  1    1    2  504  501 +9.8300431032e+00 +1.8169779412e+01 +2.5413648829e+01 3.2750941637e+01 0.0000000000e+00 0.0000e+00 1.0000e+00
       21  1    1    2  505  503 +1.9278451923e+02 +1.4563711190e+02 -8.0043295459e+02 8.3610343500e+02 0.0000000000e+00 0.0000e+00 -1.0000e+00
<mgrwt>
<rscale>  4 0.51897976E+03</rscale>
<asrwt>0</asrwt>
<pdfrwt beam="1">  1       21 0.18230308E+00 0.51897976E+03</pdfrwt>
<pdfrwt beam="2">  1       21 0.24517110E+00 0.51897976E+03</pdfrwt>
<totfact> 0.87596318E+00</totfact>
</mgrwt>
</event>
<event>
 6      1 +2.5168323e+02 2.67983100e+02 7.54677100e-03 1.17132900e-01
       21 -1    0    0  505  502 +0.0000000000e+00 +0.0000000000e+00 +4.4846477233e+02 4.4846477233e+02 0.0000000000e+00 0.0000e+00 1.0000e+00
       21 -1    0    0  504  503 -0.0000000000e+00 -0.0000000000e+00 -4.6879835645e+02 4.6879835645e+02 0.0000000000e+00 0.0000e+00 -1.0000e+00
        6  1    1    2  501    0 -2.4205483999e+02 -5.5146880626e+01 -2.3190765356e+02 3.8123730639e+02 1.7300000000e+02 0.0000e+00 -1.0000e+00
       -6  1    1    2    0  502 +1.6569064390e+02 +2.8515713357e+01 +1.9937224251e+02 3.1296138175e+02 1.7300000000e+02 0.0000e+00 1.0000e+00
       21  1    1    2  504  501 +5.1084926836e+01 -2.2905987602e+01 -9.0415692253e+01 1.0634543443e+02 0.0000000000e+00 0.0000e+00 -1.0000e+00
       21  1    1    2  505  503 +2.5279269252e+01 +4.9537154871e+01 +1.0261751919e+02 1.1671900621e+02 0.0000000000e+00 0.0000e+00 1.0000e+00
<mgrwt>
<rscale>  4 0.26798311E+03</rscale>
<asrwt>0</asrwt>
<pdfrwt beam="1">  1       21 0.68994580E-01 0.26798311E+03</pdfrwt>
<pdfrwt beam="2">  1       21 0.72122824E-01 0.26798311E+03</pdfrwt>
<totfact> 0.31409440E+03</totfact>
</mgrwt>
</event>
<event>
 6      1 +2.5168323e+02 2.52997400e+02 7.54677100e-03 1.07279400e-01
       21 -1    0    0  505  502 +0.0000000000e+00 +0.0000000000e+00 +1.7610604185e+02 1.7610604185e+02 0.0000000000e+00 0.0000e+00 -1.0000e+00
       21 -1    0    0  501  503 -0.0000000000e+00 -0.0000000000e+00 -9.2713437423e+02 9.2713437423e+02 0.0000000000e+00 0.0000e+00 -1.0000e+00
        6  1    1    2  501    0 -3.6472933971e+01 +1.5719636937e+02 -4.8392938682e+02 5.3866281186e+02 1.7300000000e+02 0.0000e+00 -1.0000e+00
       -6  1    1    2    0  504 +4.2717835509e+01 +5.9788848717e+01 -1.2579521298e+02 2.2617019147e+02 1.7300000000e+02 0.0000e+00 -1.0000e+00
       21  1    1    2  504  502 +4.4128327267e+01 -2.4276501757e+02 -1.3556192133e+02 2.8153010059e+02 0.0000000000e+00 0.0000e+00 -1.0000e+00
       21  1    1    2  505  503 -5.0373228804e+01 +2.5779799481e+01 -5.7418112443e+00 5.6877312154e+01 0.0000000000e+00 0.0000e+00 -1.0000e+00
<mgrwt>
<rscale>  4 0.23484105E+03</rscale>
<asrwt>0</asrwt>
<pdfrwt beam="1">  1       21 0.27093237E-01 0.25299736E+03</pdfrwt>
<pdfrwt beam="2">  1       21 0.14263606E+00 0.25299736E+03</pdfrwt>
<totfact> 0.42276743E+03</totfact>
</mgrwt>
</event>
<event>
 6      1 +2.5168323e+02 2.86160700e+02 7.54677100e-03 1.07240600e-01
       21 -1    0    0  505  502 +0.0000000000e+00 +0.0000000000e+00 +5.6013426472e+02 5.6013426472e+02 0.0000000000e+00 0.0000e+00 1.0000e+00
       21 -1    0    0  504  503 -0.0000000000e+00 -0.0000000000e+00 -3.0063093677e+02 3.0063093677e+02 0.0000000000e+00 0.0000e+00 1.0000e+00
        6  1    1    2  501    0 +1.2180779441e+02 +1.7397963110e+02 +2.6473606999e+02 3.8094650224e+02 1.7300000000e+02 0.0000e+00 1.0000e+00
       -6  1    1    2    0  502 -1.0029453689e+02 -2.4494775110e+02 +8.3192422999e+01 3.2696846047e+02 1.7300000000e+02 0.0000e+00 1.0000e+00
       21  1    1    2  504  501 +4.7321463571e+00 +5.4471119925e+01 +4.5287239778e+00 5.4863516620e+01 0.0000000000e+00 0.0000e+00 -1.0000e+00
       21  1    1    2  505  503 -2.6245403878e+01 +1.6497000071e+01 -9.2953889016e+01 9.7986722157e+01 0.0000000000e+00 0.0000e+00 -1.0000e+00
<mgrwt>
<rscale>  4 0.28616072E+03</rscale>
<asrwt>0</asrwt>
<pdfrwt beam="1">  1       21 0.86174502E-01 0.28616072E+03</pdfrwt>
<pdfrwt beam="2">  1       21 0.46250913E-01 0.28616072E+03</pdfrwt>
<totfact> 0.48904659E+03</totfact>
</mgrwt>
</event>
<event>
 6      1 +2.5168323e+02 2.00900900e+02 7.54677100e-03 1.15942100e-01
       21 -1    0    0  504  502 +0.0000000000e+00 +0.0000000000e+00 +1.3174840453e+03 1.3174840453e+03 0.0000000000e+00 0.0000e+00 1.0000e+00
       21 -1    0    0  501  503 -0.0000000000e+00 -0.0000000000e+00 -3.6977358526e+02 3.6977358526e+02 0.0000000000e+00 0.0000e+00 1.0000e+00
        6  1    1    2  501    0 +1.0330721434e+02 -8.8033922704e+01 +3.5231430590e+02 4.1530316905e+02 1.7300000000e+02 0.0000e+00 1.0000e+00
       -6  1    1    2    0  502 -4.2243857393e+01 +8.3254638107e+01 +9.1417719919e+02 9.3507477229e+02 1.7300000000e+02 0.0000e+00 1.0000e+00
       21  1    1    2  504  505 +1.1838841752e+01 -2.0529133661e+01 -3.1527790442e+01 3.9441159631e+01 0.0000000000e+00 0.0000e+00 1.0000e+00
       21  1    1    2  505  503 -7.2902198700e+01 +2.5308418258e+01 -2.8725325460e+02 2.9743852960e+02 0.0000000000e+00 0.0000e+00 1.0000e+00
<mgrwt>
<rscale>  4 0.20090089E+03</rscale>
<asrwt>0</asrwt>
<pdfrwt beam="1">  1       21 0.20268985E+00 0.20090089E+03</pdfrwt>
<pdfrwt beam="2">  1       21 0.56888244E-01 0.20090089E+03</pdfrwt>
<totfact> 0.37089858E+02</totfact>
</mgrwt>
</event>
<event>
 6      1 +2.5168323e+02 1.73227900e+02 7.54677100e-03 1.03924000e-01
       21 -1    0    0  501  502 +0.0000000000e+00 +0.0000000000e+00 +3.9532557344e+02 3.9532557344e+02 0.0000000000e+00 0.0000e+00 1.0000e+00
       21 -1    0    0  504  503 -0.0000000000e+00 -0.0000000000e+00 -1.2377111500e+02 1.2377111500e+02 0.0000000000e+00 0.0000e+00 1.0000e+00
        6  1    1    2  501    0 +2.1186215646e+01 +2.5891421414e+01 +4.5319806294e+01 1.8193984247e+02 1.7300000000e+02 0.0000e+00 1.0000e+00
       -6  1    1    2    0  505 +3.5737581114e+00 +3.4093360581e+01 +1.4936596175e+02 2.3111538138e+02 1.7300000000e+02 0.0000e+00 1.0000e+00
       21  1    1    2  504  502 -6.4866211729e+00 -2.7797720764e+01 +5.7666234825e+01 6.4344262936e+01 0.0000000000e+00 0.0000e+00 -1.0000e+00
       21  1    1    2  505  503 -1.8273352584e+01 -3.2187061232e+01 +1.9202455569e+01 4.1697201648e+01 0.0000000000e+00 0.0000e+00 1.0000e+00
<mgrwt>
<rscale>  4 0.17322794E+03</rscale>
<asrwt>0</asrwt>
<pdfrwt beam="1">  1       21 0.60819319E-01 0.17322794E+03</pdfrwt>
<pdfrwt beam="2">  1       21 0.19041710E-01 0.17322794E+03</pdfrwt>
<totfact> 0.64217160E+04</totfact>
</mgrwt>
</event>
<event>
 6      1 +2.5168323e+02 2.41732500e+02 7.54677100e-03 1.15942100e-01
       21 -1    0    0  504  502 +0.0000000000e+00 +0.0000000000e+00 +3.8446414124e+02 3.8446414124e+02 0.0000000000e+00 0.0000e+00 1.0000e+00
       21 -1    0    0  501  503 -0.0000000000e+00 -0.0000000000e+00 -9.7318222897e+02 9.7318222897e+02 0.0000000000e+00 0.0000e+00 1.0000e+00
        6  1    1    2  501    0 -4.0421430827e+00 +2.0448858626e+02 +1.9797489955e+02 3.3309905687e+02 1.7300000000e+02 0.0000e+00 1.0000e+00
       -6  1    1    2    0  502 -1.3377389044e+02 -8.4415340781e+01 -2.2064729519e+01 2.3545117500e+02 1.7300000000e+02 0.0000e+00 1.0000e+00
       21  1    1    2  504  505 +1.0737698699e+02 -8.8676289225e+01 -6.7685603307e+02 6.9103356728e+02 0.0000000000e+00 0.0000e+00 1.0000e+00
       21  1    1    2  505  503 +3.0439046528e+01 -3.1396956257e+01 -8.7772224691e+01 9.8062571061e+01 0.0000000000e+00 0.0000e+00 1.0000e+00
<mgrwt>
<rscale>  4 0.24173249E+03</rscale>
<asrwt>0</asrwt>
<pdfrwt beam="1">  1       21 0.59148330E-01 0.24173249E+03</pdfrwt>
<pdfrwt beam="2">  1       21 0.14972034E+00 0.24173249E+03</pdfrwt>
<totfact> 0.76477191E+02</totfact>
</mgrwt>
</event>
<event>
 6      1 +2.5168323e+02 2.60588500e+02 7.54677100e-03 1.09678400e-01
       21 -1    0    0  505  502 +0.0000000000e+00 +0.0000000000e+00 +3.7033037732e+02 3.7033037732e+02 0.0000000000e+00 0.0000e+00 1.0000e+00
       21 -1    0    0  504  503 -0.0000000000e+00 -0.0000000000e+00 -3.9793072660e+02 3.9793072660e+02 0.0000000000e+00 0.0000e+00 1.0000e+00
        6  1    1    2  501    0 +1.7364376674e+02 +7.1439366606e+00 -1.4362022504e+02 2.8418121437e+02 1.7300000000e+02 0.0000e+00 1.0000e+00
       -6  1    1    2    0  503 +7.6069422097e+01 -5.4324947661e+01 +4.9617109909e+01 2.0280190954e+02 1.7300000000e+02 0.0000e+00 -1.0000e+00
       21  1    1    2  504  502 -1.1322591807e+01 +2.9236875291e+01 +2.1542432358e+01 3.8040404229e+01 0.0000000000e+00 0.0000e+00 -1.0000e+00
       21  1    1    2  505  501 -2.3839059703e+02 +1.7944135709e+01 +4.4860333499e+01 2.4323757579e+02 0.0000000000e+00 0.0000e+00 1.0000e+00
<mgrwt>
<rscale>  4 0.24153006E+03</rscale>
<asrwt>0</asrwt>
<pdfrwt beam="1">  1       21 0.56973905E-01 0.26058850E+03</pdfrwt>
<pdfrwt beam="2">  1       21 0.61220111E-01 0.26058850E+03</pdfrwt>
<totfact> 0.68718344E+03</totfact>
</mgrwt>
</event>
<event>
 6      1 +2.5168323e+02 1.78837200e+02 7.54677100e-03 1.16820100e-01
       21 -1    0    0  501  502 +0.0000000000e+00 +0.0000000000e+00 +6.6451052863e+02 6.6451052863e+02 0.0000000000e+00 0.0000e+00 -1.0000e+00
       21 -1    0    0  504  503 -0.0000000000e+00 -0.0000000000e+00 -1.4143999948e+02 1.4143999948e+02 0.0000000000e+00 0.0000e+00 -1.0000e+00
        6  1    1    2  501    0 -3.1148159229e+01 -1.9615814656e+01 +4.7978136382e+02 5.1134542638e+02 1.7300000000e+02 0.0000e+00 -1.0000e+00
       -6  1    1    2    0  503 +6.0255863173e+01 +3.7148623530e+01 -1.9158417538e+01 1.8790112889e+02 1.7300000000e+02 0.0000e+00 -1.0000e+00
       21  1    1    2  504  505 -3.8170737716e+01 +7.5421519097e-01 -2.8564453915e+00 3.8284897004e+01 0.0000000000e+00 0.0000e+00 -1.0000e+00
       21  1    1    2  505  502 +9.0630337720e+00 -1.8287024065e+01 +6.5304028257e+01 6.8419075826e+01 0.0000000000e+00 0.0000e+00 -1.0000e+00
<mgrwt>
<rscale>  4 0.17883720E+03</rscale>
<asrwt>0</asrwt>
<pdfrwt beam="1">  1       21 0.10223239E+00 0.17883720E+03</pdfrwt>
<pdfrwt beam="2">  1       21 0.21760000E-01 0.17883720E+03</pdfrwt>
<totfact> 0.15488695E+04</totfact>
</mgrwt>
</event>
<event>
 6      1 +2.5168323e+02 1.99789400e+02 7.54677100e-03 1.15942100e-01
       21 -1    0    0  504  502 +0.0000000000e+00 +0.0000000000e+00 +1.3662709577e+02 1.3662709577e+02 0.0000000000e+00 0.0000e+00 1.0000e+00
       21 -1    0    0  501  503 -0.0000000000e+00 -0.0000000000e+00 -4.3499150759e+02 4.3499150759e+02 0.0000000000e+00 0.0000e+00 -1.0000e+00
        6  1    1    2  501    0 +1.0082056229e+02 +4.6577184744e+01 -1.5352429965e+02 2.5657928697e+02 1.7300000000e+02 0.0000e+00 -1.0000e+00
       -6  1    1    2    0  502 -9.7072968998e+01 +9.8305675669e-01 -4.4855732982e+01 2.0338427789e+02 1.7300000000e+02 0.0000e+00 -1.0000e+00
       21  1    1    2  504  505 +1.8016244680e+00 -2.2785242776e+01 -6.0905129556e+01 6.5052655175e+01 0.0000000000e+00 0.0000e+00 -1.0000e+00
       21  1    1    2  505  503 -5.5492177632e+00 -2.4774998725e+01 -3.9079249627e+01 4.6602383319e+01 0.0000000000e+00 0.0000e+00 -1.0000e+00
<mgrwt>
<rscale>  4 0.19978944E+03</rscale>
<asrwt>0</asrwt>
<pdfrwt beam="1">  1       21 0.21019554E-01 0.19978944E+03</pdfrwt>
<pdfrwt beam="2">  1       21 0.66921769E-01 0.19978944E+03</pdfrwt>
<totfact> 0.42857000E+04</totfact>
</mgrwt>
</event>
<event>
 6      1 +2.5168323e+02 2.52384200e+02 7.54677100e-03 1.03924000e-01
       21 -1    0    0  504  502 +0.0000000000e+00 +0.0000000000e+00 +1.6550507508e+03 1.6550507508e+03 0.0000000000e+00 0.0000e+00 1.0000e+00
       21 -1    0    0  501  503 -0.0000000000e+00 -0.0000000000e+00 -1.3313440144e+02 1.3313440144e+02 0.0000000000e+00 0.0000e+00 -1.0000e+00
        6  1    1    2  501    0 +1.0227736640e+02 +1.6094666458e+02 +8.7930805555e+02 9.1622930812e+02 1.7300000000e+02 0.0000e+00 1.0000e+00
       -6  1    1    2    0  505 -4.3632062116e+01 -1.7879467258e+02 +2.8601663001e+01 2.5420139046e+02 1.7300000000e+02 0.0000e+00 -1.0000e+00
       21  1    1    2  504  503 -2.6599478464e+01 +2.2068654947e+01 +2.6266590315e+02 2.6493005580e+02 0.0000000000e+00 0.0000e+00 1.0000e+00
       21  1    1    2  505  502 -3.2045825817e+01 -4.2206469436e+00 +3.5134072767e+02 3.5282439787e+02 0.0000000000e+00 0.0000e+00 1.0000e+00
<mgrwt>
<rscale>  4 0.25238421E+03</rscale>
<asrwt>0</asrwt>
<pdfrwt beam="1">  1       21 0.25462318E+00 0.25238421E+03</pdfrwt>
<pdfrwt beam="2">  1       21 0.20482217E-01 0.25238421E+03</pdfrwt>
<totfact> 0.12940129E+03</totfact>
</mgrwt>
</event>
<event>
 6      1 +2.5168323e+02 2.82579100e+02 7.54677100e-03 1.03924000e-01
       21 -1    0    0  504  502 +0.0000000000e+00 +0.0000000000e+00 +5.6878078114e+02 5.6878078114e+02 0.0000000000e+00 0.0000e+00 -1.0000e+00
       21 -1    0    0  501  503 -0.0000000000e+00 -0.0000000000e+00 -3.0085338929e+02 3.0085338929e+02 0.0000000000e+00 0.0000e+00 1.0000e+00
        6  1    1    2  501    0 +1.1149807486e+02 +1.9573098593e+02 -1.3667047791e+02 3.1519876123e+02 1.7300000000e+02 0.0000e+00 1.0000e+00
       -6  1    1    2    0  505 -9.5036151584e+01 -1.9600711508e+02 +2.2504884023e+02 3.5780810466e+02 1.7300000000e+02 0.0000e+00 -1.0000e+00
       21  1    1    2  504  503 -4.2934283753e+01 +3.3113923317e+00 +1.5326460243e+02 1.5919910929e+02 0.0000000000e+00 0.0000e+00 -1.0000e+00
       21  1    1    2  505  502 +2.6472360479e+01 -3.0352631779e+00 +2.6284427103e+01 3.7428195254e+01 0.0000000000e+00 0.0000e+00 -1.0000e+00
<mgrwt>
<rscale>  4 0.28257907E+03</rscale>
<asrwt>0</asrwt>
<pdfrwt beam="1">  1       21 0.87504735E-01 0.28257907E+03</pdfrwt>
<pdfrwt beam="2">  1       21 0.46285137E-01 0.28257907E+03</pdfrwt>
<totfact> 0.47213564E+03</totfact>
</mgrwt>
</event>
<event>
 6      1 +2.5168323e+02 1.99228400e+02 7.54677100e-03 1.16820100e-01
       21 -1    0    0  505  502 +0.0000000000e+00 +0.0000000000e+00 +8.8936275273e+01 8.8936275273e+01 0.0000000000e+00 0.0000e+00 1.0000e+00
       21 -1    0    0  504  503 -0.0000000000e+00 -0.0000000000e+00 -7.6235233386e+02 7.6235233386e+02 0.0000000000e+00 0.0000e+00 -1.0000e+00
        6  1    1    2  501    0 +9.6208817964e+01 -4.1376293548e+01 -1.6204019732e+02 2.5914119678e+02 1.7300000000e+02 0.0000e+00 1.0000e+00
       -6  1    1    2    0  503 -1.0075452905e+02 +4.1142943007e+01 -4.1737287389e+02 4.6472931126e+02 1.7300000000e+02 0.0000e+00 1.0000e+00
       21  1    1    2  504  502 +2.9306264866e+01 +5.4235367225e+00 -9.7431628663e+01 1.0188814541e+02 0.0000000000e+00 0.0000e+00 -1.0000e+00
       21  1    1    2  505  501 -2.4760553778e+01 -5.1901861820e+00 +3.4286412887e+00 2.5529955681e+01 0.0000000000e+00 0.0000e+00 1.0000e+00
<mgrwt>
<rscale>  4 0.19922843E+03</rscale>
<asrwt>0</asrwt>
<pdfrwt beam="1">  1       21 0.13682504E-01 0.19922843E+03</pdfrwt>
<pdfrwt beam="2">  1       21 0.11728497E+00 0.19922843E+03</pdfrwt>
<totfact> 0.25794227E+04</totfact>
</mgrwt>
</event>
<event>
 6      1 +2.5168323e+02 1.91252600e+02 7.54677100e-03 1.06249800e-01
       21 -1    0    0  505  502 +0.0000000000e+00 +0.0000000000e+00 +1.6548598349e+03 1.6548598349e+03 0.0000000000e+00 0.0000e+00 -1.0000e+00
       21 -1    0    0  501  503 -0.0000000000e+00 -0.0000000000e+00 -1.4475170346e+02 1.4475170346e+02 0.0000000000e+00 0.0000e+00 -1.0000e+00
        6  1    1    2  501    0 +4.7595899095e+01 -6.5568340955e+01 +1.4735737857e+02 2.4126287316e+02 1.7300000000e+02 0.0000e+00 1.0000e+00
       -6  1    1    2    0  502 +3.9399090774e+01 +8.9129053673e+01 +6.1431077392e+00 1.9865299981e+02 1.7300000000e+02 0.0000e+00 -1.0000e+00
       21  1    1    2  504  503 -6.9160353458e+01 -1.1764177481e+01 +1.0581869869e+03 1.0605099008e+03 0.0000000000e+00 0.0000e+00 -1.0000e+00
       21  1    1    2  505  504 -1.7834636411e+01 -1.1796535238e+01 +2.9842065825e+02 2.9918576465e+02 0.0000000000e+00 0.0000e+00 1.0000e+00
<mgrwt>
<rscale>  4 0.19125264E+03</rscale>
<asrwt>0</asrwt>
<pdfrwt beam="1">  1       21 0.25459381E+00 0.19125264E+03</pdfrwt>
<pdfrwt beam="2">  1       21 0.22269494E-01 0.19125264E+03</pdfrwt>
<totfact> 0.11809412E+03</totfact>
</mgrwt>
</event>
<event>
 6      1 +2.5168323e+02 4.91407100e+02 7.54677100e-03 1.11634100e-01
       21 -1    0    0  503  502 +0.0000000000e+00 +0.0000000000e+00 +1.8042838205e+03 1.8042838205e+03 0.0000000000e+00 0.0000e+00 1.0000e+00
       21 -1    0    0  505  503 -0.0000000000e+00 -0.0000000000e+00 -7.1790733380e+02 7.1790733380e+02 0.0000000000e+00 0.0000e+00 1.0000e+00
        6  1    1    2  501    0 -1.6656515359e+02 -3.3896251754e+02 -1.2430805162e+02 4.3361391858e+02 1.7300000000e+02 0.0000e+00 1.0000e+00
       -6  1    1    2    0  504 -2.9531203864e+02 -5.8310633179e+01 +1.9525473446e+02 3.9832491943e+02 1.7300000000e+02 0.0000e+00 1.0000e+00
       21  1    1    2  504  502 +2.5617170246e+02 +3.9739383455e+02 +1.2745427944e+03 1.3594135264e+03 0.0000000000e+00 0.0000e+00 1.0000e+00
       21  1    1    2  505  501 +2.0570548977e+02 -1.2068383158e-01 -2.5911299051e+02 3.3083878995e+02 0.0000000000e+00 0.0000e+00 1.0000e+00
<mgrwt>
<rscale>  4 0.43663026E+03</rscale>
<asrwt>0</asrwt>
<pdfrwt beam="1">  1       21 0.27758213E+00 0.49140711E+03</pdfrwt>
<pdfrwt beam="2">  1       21 0.11044728E+00 0.49140711E+03</pdfrwt>
<totfact> 0.21755181E+01</totfact>
</mgrwt>
</event>
<event>
 6      1 +2.5168323e+02 2.01919900e+02 7.54677100e-03 1.16820100e-01
       21 -1    0    0  504  502 +0.0000000000e+00 +0.0000000000e+00 +3.2641039080e+02 3.2641039080e+02 0.0000000000e+00 0.0000e+00 1.0000e+00
       21 -1    0    0  501  503 -0.0000000000e+00 -0.0000000000e+00 -1.5908018767e+03 1.5908018767e+03 0.0000000000e+00 0.0000e+00 -1.0000e+00
        6  1    1    2  501    0 +2.2099601715e+02 -8.9190915447e+01 -1.2261672823e+02 3.1899548748e+02 1.7300000000e+02 0.0000e+00 1.0000e+00
       -6  1    1    2    0  505 -1.6865918009e+00 +5.7880284939e+00 +1.6595646913e+01 1.7389871006e+02 1.7300000000e+02 0.0000e+00 1.0000e+00
       21  1    1    2  504  503 -1.3663580610e+02 +1.4454298105e+01 -1.2652101460e+03 1.2726488061e+03 0.0000000000e+00 0.0000e+00 -1.0000e+00
       21  1    1    2  505  502 -8.2673619243e+01 +6.8948588849e+01 +1.0683974145e+02 1.5166926378e+02 0.0000000000e+00 0.0000e+00 1.0000e+00
<mgrwt>
<rscale>  4 0.20191987E+03</rscale>
<asrwt>0</asrwt>
<pdfrwt beam="1">  1       21 0.50216983E-01 0.20191987E+03</pdfrwt>
<pdfrwt beam="2">  1       21 0.24473875E+00 0.20191987E+03</pdfrwt>
<totfact> 0.26628850E+02</totfact>
</mgrwt>
</event>
<event>
 6      1 +2.5168323e+02 2.03430600e+02 7.54677100e-03 1.11634100e-01
       21 -1    0    0  504  502 +0.0000000000e+00 +0.0000000000e+00 +5.4377256462e+02 5.4377256462e+02 0.0000000000e+00 0.0000e+00 1.0000e+00
       21 -1    0    0  505  503 -0.0000000000e+00 -0.0000000000e+00 -3.8378908806e+02 3.8378908806e+02 0.0000000000e+00 0.0000e+00 -1.0000e+00
        6  1    1    2  501    0 +7.6819876583e+01 -8.9630180468e+01 +1.3202897500e+02 2.4757930634e+02 1.7300000000e+02 0.0000e+00 1.0000e+00
       -6  1    1    2    0  502 -5.9239658705e+01 +7.6024136710e+01 +1.2282079371e+02 2.3302994205e+02 1.7300000000e+02 0.0000e+00 1.0000e+00
       21  1    1    2  504  503 +5.8187109043e+00 +1.9775984721e+01 +1.7489613148e+02 1.7610679651e+02 0.0000000000e+00 0.0000e+00 1.0000e+00
       21  1    1    2  505  501 -2.3398928783e+01 -6.1699409629e+00 -2.6976242364e+02 2.7084560777e+02 0.0000000000e+00 0.0000e+00 -1.0000e+00
<mgrwt>
<rscale>  4 0.20343058E+03</rscale>
<asrwt>0</asrwt>
<pdfrwt beam="1">  1       21 0.83657318E-01 0.20343058E+03</pdfrwt>
<pdfrwt beam="2">  1       21 0.59044475E-01 0.20343058E+03</pdfrwt>
<totfact> 0.33028904E+03</totfact>
</mgrwt>
</event>
<event>
 6      1 +2.5168323e+02 1.92022500e+02 7.54677100e-03 1.16820100e-01
       21 -1    0    0  501  502 +0.0000000000e+00 +0.0000000000e+00 +1.0538536623e+02 1.0538536623e+02 0.0000000000e+00 0.0000e+00 1.0000e+00
       21 -1    0    0  504  503 -0.0000000000e+00 -0.0000000000e+00 -1.5484120823e+03 1.5484120823e+03 0.0000000000e+00 0.0000e+00 1.0000e+00
        6  1    1    2  501    0 +3.9439114112e+01 +4.5670136927e+01 -2.2342193760e+02 2.8894215222e+02 1.7300000000e+02 0.0000e+00 1.0000e+00
       -6  1    1    2    0  503 -5.8588255458e+01 -8.8601626765e+01 -9.9727277394e+02 1.0177253154e+03 1.7300000000e+02 0.0000e+00 1.0000e+00
       21  1    1    2  504  505 -6.9855044196e-01 +2.7793653322e+01 -2.8152216020e+02 2.8289167860e+02 0.0000000000e+00 0.0000e+00 -1.0000e+00
       21  1    1    2  505  502 +1.9847691789e+01 +1.5137836515e+01 +5.9190155637e+01 6.4238302344e+01 0.0000000000e+00 0.0000e+00 1.0000e+00
<mgrwt>
<rscale>  4 0.19202246E+03</rscale>
<asrwt>0</asrwt>
<pdfrwt beam="1">  1       21 0.16213134E-01 0.19202246E+03</pdfrwt>
<pdfrwt beam="2">  1       21 0.23821724E+00 0.19202246E+03</pdfrwt>
<totfact> 0.26589266E+03</totfact>
</mgrwt>
</event>
<event>
 6      1 +2.5168323e+02 1.79537900e+02 7.54677100e-03 1.15942100e-01
       21 -1    0    0  504  502 +0.0000000000e+00 +0.0000000000e+00 +6.3424150013e+02 6.3424150013e+02 0.0000000000e+00 0.0000e+00 1.0000e+00
       21 -1    0    0  501  503 -0.0000000000e+00 -0.0000000000e+00 -6.8769999698e+02 6.8769999698e+02 0.0000000000e+00 0.0000e+00 1.0000e+00
        6  1    1    2  501    0 -1.1878369460e+02 -2.6741620542e+01 +1.2830083147e+02 2.4741621558e+02 1.7300000000e+02 0.0000e+00 -1.0000e+00
       -6  1    1    2    0  505 +2.6236489445e+01 +1.9999516629e+00 +4.1604015823e+02 4.5134329113e+02 1.7300000000e+02 0.0000e+00 1.0000e+00
       21  1    1    2  504  503 +9.2031300150e+01 -4.5357608629e+00 -5.8325175657e+02 5.9048534688e+02 0.0000000000e+00 0.0000e+00 1.0000e+00
       21  1    1    2  505  502 +5.1590500869e-01 +2.9277429742e+01 -1.4547729980e+01 3.2696643526e+01 0.0000000000e+00 0.0000e+00 -1.0000e+00
<mgrwt>
<rscale>  4 0.17953793E+03</rscale>
<asrwt>0</asrwt>
<pdfrwt beam="1">  1       21 0.97575616E-01 0.17953793E+03</pdfrwt>
<pdfrwt beam="2">  1       21 0.10580000E+00 0.17953793E+03</pdfrwt>
<totfact> 0.63330140E+02</totfact>
</mgrwt>
</event>
<event>
 6      1 +2.5168323e+02 2.66713700e+02 7.54677100e-03 1.11634100e-01
       21 -1    0    0  504  502 +0.0000000000e+00 +0.0000000000e+00 +8.9548305001e+02 8.9548305001e+02 0.0000000000e+00 0.0000e+00 -1.0000e+00
       21 -1    0    0  505  503 -0.0000000000e+00 -0.0000000000e+00 -1.7876020811e+02 1.7876020811e+02 0.0000000000e+00 0.0000e+00 1.0000e+00
        6  1    1    2  501    0 -9.0631464391e+01 -1.2776743242e+02 +3.1006539859e+02 3.8808263363e+02 1.7300000000e+02 0.0000e+00 -1.0000e+00
       -6  1    1    2    0  502 +1.7187499205e+02 +1.5154046173e+02 +1.5227089168e+02 3.2499376746e+02 1.7300000000e+02 0.0000e+00 1.0000e+00
       21  1    1    2  504  503 -1.3998059132e+02 -2.3556882581e+01 +2.6580171063e+02 3.0133045322e+02 0.0000000000e+00 0.0000e+00 -1.0000e+00
       21  1    1    2  505  501 +5.8737063656e+01 -2.1614673004e-01 -1.1415158997e+01 5.9836403813e+01 0.0000000000e+00 0.0000e+00 1.0000e+00
<mgrwt>
<rscale>  4 0.26671372E+03</rscale>
<asrwt>0</asrwt>
<pdfrwt beam="1">  1       21 0.13776662E+00 0.26671372E+03</pdfrwt>
<pdfrwt beam="2">  1       21 0.27501571E-01 0.26671372E+03</pdfrwt>
<totfact> 0.44574329E+03</totfact>
</mgrwt>
</event>
<event>
 6      1 +2.5168323e+02 1.81907100e+02 7.54677100e-03 1.11634100e-01
       21 -1    0    0  503  502 +0.0000000000e+00 +0.0000000000e+00 +2.3489644179e+03 2.3489644179e+03 0.0000000000e+00 0.0000e+00 1.0000e+00
       21 -1    0    0  505  503 -0.0000000000e+00 -0.0000000000e+00 -4.0973432269e+01 4.0973432269e+01 0.0000000000e+00 0.0000e+00 1.0000e+00
        6  1    1    2  501    0 -5.3248400461e+01 -8.1354907391e+01 +1.2819276243e+03 1.2971975359e+03 1.7300000000e+02 0.0000e+00 1.0000e+00
       -6  1    1    2    0  504 +2.3910431104e+01 +4.7035030601e+01 +3.1005755850e+02 3.5895500052e+02 1.7300000000e+02 0.0000e+00 1.0000e+00
       21  1    1    2  504  502 +2.0444547826e+01 +5.2733566006e+01 +7.1030979912e+02 7.1255794097e+02 0.0000000000e+00 0.0000e+00 1.0000e+00
       21  1    1    2  505  501 +8.8934215302e+00 -1.8413689216e+01 +5.6960036815e+00 2.1227372777e+01 0.0000000000e+00 0.0000e+00 -1.0000e+00
<mgrwt>
<rscale>  4 0.18190709E+03</rscale>
<asrwt>0</asrwt>
<pdfrwt beam="1">  1       21 0.36137904E+00 0.18190709E+03</pdfrwt>
<pdfrwt beam="2">  1       21 0.63036068E-02 0.18190709E+03</pdfrwt>
<totfact> 0.27537682E+03</totfact>
</mgrwt>
</event>
<event>
 6      1 +2.5168323e+02 2.14912800e+02 7.54677100e-03 1.06249800e-01
       21 -1    0    0  505  502 +0.0000000000e+00 +0.0000000000e+00 +3.2222835662e+02 3.2222835662e+02 0.0000000000e+00 0.0000e+00 1.0000e+00
       21 -1    0    0  501  503 -0.0000000000e+00 -0.0000000000e+00 -8.4236595326e+02 8.4236595326e+02 0.0000000000e+00 0.0000e+00 1.0000e+00
        6  1    1    2  501    0 +7.8062068085e+01 -1.3587168777e+01 -1.5712013225e+02 2.4676716473e+02 1.7300000000e+02 0.0000e+00 1.0000e+00
       -6  1    1    2    0  502 -1.4546956037e+02 +3.5631356714e+01 -6.1459890691e+02 6.5581384779e+02 1.7300000000e+02 0.0000e+00 1.0000e+00
       21  1    1    2  504  503 +4.6246603444e+01 -2.2671311489e+01 +1.6334025320e+02 1.7126813775e+02 0.0000000000e+00 0.0000e+00 1.0000e+00
       21  1    1    2  505  504 +2.1160888836e+01 +6.2712355312e-01 +8.8241189327e+01 9.0745159618e+01 0.0000000000e+00 0.0000e+00 1.0000e+00
<mgrwt>
<rscale>  4 0.21491279E+03</rscale>
<asrwt>0</asrwt>
<pdfrwt beam="1">  1       21 0.49573593E-01 0.21491279E+03</pdfrwt>
<pdfrwt beam="2">  1       21 0.12959476E+00 0.21491279E+03</pdfrwt>
<totfact> 0.16554134E+03</totfact>
</mgrwt>
</event>
<event>
 6      1 +2.5168323e+02 3.49996700e+02 7.54677100e-03 1.03924000e-01
       21 -1    0    0  504  502 +0.0000000000e+00 +0.0000000000e+00 +2.0876285354e+02 2.0876285354e+02 0.0000000000e+00 0.0000e+00 1.0000e+00
       21 -1    0    0  501  503 -0.0000000000e+00 -0.0000000000e+00 -1.5784209145e+03 1.5784209145e+03 0.0000000000e+00 0.0000e+00 -1.0000e+00
        6  1    1    2  501    0 +2.2308760265e+02 -2.4565684020e+02 -1.0723025254e+03 1.1357275499e+03 1.7300000000e+02 0.0000e+00 -1.0000e+00
       -6  1    1    2    0  505 -1.8767224003e+02 +1.7849250561e+02 -4.0881887610e+02 5.1394777720e+02 1.7300000000e+02 0.0000e+00 -1.0000e+00
       21  1    1    2  504  503 -2.9850587406e+01 +3.1452043626e+01 +7.1533505699e+01 8.3650051132e+01 0.0000000000e+00 0.0000e+00 1.0000e+00
       21  1    1    2  505  502 -5.5647752097e+00 +3.5712290958e+01 +3.9929834815e+01 5.3858389847e+01 0.0000000000e+00 0.0000e+00 1.0000e+00
<mgrwt>
<rscale>  4 0.34999671E+03</rscale>
<asrwt>0</asrwt>
<pdfrwt beam="1">  1       21 0.32117362E-01 0.34999671E+03</pdfrwt>
<pdfrwt beam="2">  1       21 0.24283399E+00 0.34999671E+03</pdfrwt>
<totfact> 0.59050449E+02</totfact>
</mgrwt>
</event>
<event>
 6      1 +2.5168323e+02 4.25765800e+02 7.54677100e-03 1.14278100e-01
       21 -1    0    0  501  502 +0.0000000000e+00 +0.0000000000e+00 +1.1207317176e+03 1.1207317176e+03 0.0000000000e+00 0.0000e+00 -1.0000e+00
       21 -1    0    0  504  503 -0.0000000000e+00 -0.0000000000e+00 -1.1202387031e+03 1.1202387031e+03 0.0000000000e+00 0.0000e+00 -1.0000e+00
        6  1    1    2  501    0 -3.6199509715e+02 +1.3035974432e+02 -3.8111069697e+02 5.6851427128e+02 1.7300000000e+02 0.0000e+00 1.0000e+00
       -6  1    1    2    0  505 +3.5558322482e+00 -2.4214417953e+02 -4.8539154616e+02 5.6936842265e+02 1.7300000000e+02 0.0000e+00 -1.0000e+00
       21  1    1    2  504  502 -1.1898281761e+02 -9.6475767233e+01 +2.7322237186e+02 3.1323305865e+02 0.0000000000e+00 0.0000e+00 -1.0000e+00
       21  1    1    2  505  503 +4.7742208252e+02 +2.0826020244e+02 +5.9377288579e+02 7.8985466808e+02 0.0000000000e+00 0.0000e+00 -1.0000e+00
<mgrwt>
<rscale>  4 0.39060392E+03</rscale>
<asrwt>0</asrwt>
<pdfrwt beam="1">  1       21 0.17242026E+00 0.42576584E+03</pdfrwt>
<pdfrwt beam="2">  1       21 0.17234442E+00 0.42576584E+03</pdfrwt>
<totfact> 0.33178415E+01</totfact>
</mgrwt>
</event>
<event>
 6      1 +2.5168323e+02 1.97699900e+02 7.54677100e-03 1.14278100e-01
       21 -1    0    0  504  502 +0.0000000000e+00 +0.0000000000e+00 +9.7773489698e+02 9.7773489698e+02 0.0000000000e+00 0.0000e+00 1.0000e+00
       21 -1    0    0  502  503 -0.0000000000e+00 -0.0000000000e+00 -7.6160031003e+01 7.6160031003e+01 0.0000000000e+00 0.0000e+00 1.0000e+00
        6  1    1    2  501    0 -2.1856494131e+01 -7.9253978083e+01 +4.6966466582e+02 5.0722065977e+02 1.7300000000e+02 0.0000e+00 1.0000e+00
       -6  1    1    2    0  505 -3.3730767897e+01 +9.9770374676e+01 +1.3897332984e+02 2.4563077733e+02 1.7300000000e+02 0.0000e+00 1.0000e+00
       21  1    1    2  504  501 +3.7297778123e+01 -3.0046251054e+01 +2.2519790664e+02 2.3023465988e+02 0.0000000000e+00 0.0000e+00 1.0000e+00
       21  1    1    2  505  503 +1.8289483905e+01 +9.5298544598e+00 +6.7738963683e+01 7.0808831006e+01 0.0000000000e+00 0.0000e+00 1.0000e+00
<mgrwt>
<rscale>  4 0.19769993E+03</rscale>
<asrwt>0</asrwt>
<pdfrwt beam="1">  1       21 0.15042074E+00 0.19769993E+03</pdfrwt>
<pdfrwt beam="2">  1       21 0.11716929E-01 0.19769993E+03</pdfrwt>
<totfact> 0.18107315E+04</totfact>
</mgrwt>
</event>
<event>
 6      1 +2.5168323e+02 1.89510600e+02 7.54677100e-03 1.03924000e-01
       21 -1    0    0  504  502 +0.0000000000e+00 +0.0000000000e+00 +1.5856671540e+03 1.5856671540e+03 0.0000000000e+00 0.0000e+00 1.0000e+00
       21 -1    0    0  501  503 -0.0000000000e+00 -0.0000000000e+00 -1.7879649404e+03 1.7879649404e+03 0.0000000000e+00 0.0000e+00 1.0000e+00
        6  1    1    2  501    0 -2.6884388107e+00 -9.0115089921e+01 -1.4439007318e+03 1.4570196568e+03 1.7300000000e+02 0.0000e+00 1.0000e+00
       -6  1    1    2    0  505 -1.3924467211e+01 +3.2372717760e+01 -3.1376111766e+02 3.6002350284e+02 1.7300000000e+02 0.0000e+00 1.0000e+00
       21  1    1    2  504  503 +1.4249243857e+01 +2.5582820706e+01 +6.7649293831e+02 6.7712644111e+02 0.0000000000e+00 0.0000e+00 1.0000e+00
       21  1    1    2  505  502 +2.3636621643e+00 +3.2159551455e+01 +8.7887112482e+02 8.7946249363e+02 0.0000000000e+00 0.0000e+00 1.0000e+00
<mgrwt>
<rscale>  4 0.18951059E+03</rscale>
<asrwt>0</asrwt>
<pdfrwt beam="1">  1       21 0.24394879E+00 0.18951059E+03</pdfrwt>
<pdfrwt beam="2">  1       21 0.27507153E+00 0.18951059E+03</pdfrwt>
<totfact> 0.34549486E+00</totfact>
</mgrwt>
</event>
<event>
 6      1 +2.5168323e+02 2.74705000e+02 7.54677100e-03 1.16820100e-01
       21 -1    0    0  501  502 +0.0000000000e+00 +0.0000000000e+00 +5.9104009248e+02 5.9104009248e+02 0.0000000000e+00 0.0000e+00 1.0000e+00
       21 -1    0    0  504  503 -0.0000000000e+00 -0.0000000000e+00 -1.7725228741e+02 1.7725228741e+02 0.0000000000e+00 0.0000e+00 1.0000e+00
        6  1    1    2  501    0 -1.8402473364e+02 -9.5281569882e+01 +1.9787890709e+02 3.3470694947e+02 1.7300000000e+02 0.0000e+00 1.0000e+00
       -6  1    1    2    0  503 +2.1465476078e+02 +6.0088744487e+01 +1.8703348474e+02 3.3852303903e+02 1.7300000000e+02 0.0000e+00 1.0000e+00
       21  1    1    2  504  505 -2.3667848164e+01 +8.2237518400e+00 -2.4382049207e+01 3.4961142066e+01 0.0000000000e+00 0.0000e+00 -1.0000e+00
       21  1    1    2  505  502 -6.9621789754e+00 +2.6969073554e+01 +5.3257462451e+01 6.0101249331e+01 0.0000000000e+00 0.0000e+00 1.0000e+00
<mgrwt>
<rscale>  4 0.27470499E+03</rscale>
<asrwt>0</asrwt>
<pdfrwt beam="1">  1       21 0.90929244E-01 0.27470499E+03</pdfrwt>
<pdfrwt beam="2">  1       21 0.27269583E-01 0.27470499E+03</pdfrwt>
<totfact> 0.12544360E+04</totfact>
</mgrwt>
</event>
<event>
 6      1 +2.5168323e+02 1.73135900e+02 7.54677100e-03 1.11634100e-01
       21 -1    0    0  504  502 +0.0000000000e+00 +0.0000000000e+00 +1.6869779219e+02 1.6869779219e+02 0.0000000000e+00 0.0000e+00 1.0000e+00
       21 -1    0    0  505  503 -0.0000000000e+00 -0.0000000000e+00 -6.8514366458e+02 6.8514366458e+02 0.0000000000e+00 0.0000e+00 1.0000e+00
        6  1    1    2  501    0 -2.3924350211e+01 -2.6688134978e+01 -5.1234932324e+01 1.8395284551e+02 1.7300000000e+02 0.0000e+00 -1.0000e+00
       -6  1    1    2    0  502 -6.6453426521e+00 -2.4448720174e+01 +1.8135859988e+01 1.7578341763e+02 1.7300000000e+02 0.0000e+00 1.0000e+00
       21  1    1    2  504  503 +1.4214770815e+01 -1.6638343498e+01 -4.2744058592e+01 4.8020294966e+01 0.0000000000e+00 0.0000e+00 -1.0000e+00
       21  1    1    2  505  501 +1.6354922048e+01 +6.7775198650e+01 -4.4060274146e+02 4.4608489866e+02 0.0000000000e+00 0.0000e+00 1.0000e+00
<mgrwt>
<rscale>  4 0.17313589E+03</rscale>
<asrwt>0</asrwt>
<pdfrwt beam="1">  1       21 0.25953507E-01 0.17313589E+03</pdfrwt>
<pdfrwt beam="2">  1       21 0.10540671E+00 0.17313589E+03</pdfrwt>
<totfact> 0.10351616E+04</totfact>
</mgrwt>
</event>
<event>
 6      1 +2.5168323e+02 1.86801200e+02 7.54677100e-03 1.17389200e-01
       21 -1    0    0  504  502 +0.0000000000e+00 +0.0000000000e+00 +6.0534645129e+02 6.0534645129e+02 0.0000000000e+00 0.0000e+00 1.0000e+00
       21 -1    0    0  501  503 -0.0000000000e+00 -0.0000000000e+00 -1.5457730901e+02 1.5457730901e+02 0.0000000000e+00 0.0000e+00 1.0000e+00
        6  1    1    2  501    0 -4.9027758234e+01 -7.1759309735e+01 +8.0140857514e+01 2.0953442833e+02 1.7300000000e+02 0.0000e+00 -1.0000e+00
       -6  1    1    2    0  502 -3.1708775008e+01 +6.8637777851e+01 +4.1423896009e+02 4.5523566097e+02 1.7300000000e+02 0.0000e+00 1.0000e+00
       21  1    1    2  504  505 +2.7865780321e+01 +1.0127218504e+01 -2.4627256109e+01 3.8543015074e+01 0.0000000000e+00 0.0000e+00 1.0000e+00
       21  1    1    2  505  503 +5.2870752920e+01 -7.0056866194e+00 -1.8983419216e+01 5.6610655927e+01 0.0000000000e+00 0.0000e+00 1.0000e+00
<mgrwt>
<rscale>  4 0.18680120E+03</rscale>
<asrwt>0</asrwt>
<pdfrwt beam="1">  1       21 0.93130222E-01 0.18680120E+03</pdfrwt>
<pdfrwt beam="2">  1       21 0.23781125E-01 0.18680120E+03</pdfrwt>
<totfact> 0.16226130E+04</totfact>
</mgrwt>
</event>
<event>
 6      1 +2.5168323e+02 3.42829400e+02 7.54677100e-03 1.16820100e-01
       21 -1    0    0  505  502 +0.0000000000e+00 +0.0000000000e+00 +1.9288268875e+02 1.9288268875e+02 0.0000000000e+00 0.0000e+00 -1.0000e+00
       21 -1    0    0  501  503 -0.0000000000e+00 -0.0000000000e+00 -1.6032056263e+03 1.6032056263e+03 0.0000000000e+00 0.0000e+00 1.0000e+00
        6  1    1    2  501    0 -3.4088903309e+02 -2.2522618037e+02 -5.0072279281e+02 6.6901754868e+02 1.7300000000e+02 0.0000e+00 -1.0000e+00
       -6  1    1    2    0  502 +1.5613637795e+02 +1.9567567060e+02 -1.7649834159e+02 3.5177862523e+02 1.7300000000e+02 0.0000e+00 1.0000e+00
       21  1    1    2  504  503 -1.7781993792e+01 +2.8331263447e+01 -2.3839301760e+02 2.4072825059e+02 0.0000000000e+00 0.0000e+00 -1.0000e+00
       21  1    1    2  505  504 +2.0253464893e+02 +1.2192463278e+00 -4.9470878553e+02 5.3456389054e+02 0.0000000000e+00 0.0000e+00 1.0000e+00
<mgrwt>
<rscale>  4 0.34282940E+03</rscale>
<asrwt>0</asrwt>
<pdfrwt beam="1">  1       21 0.29674259E-01 0.34282940E+03</pdfrwt>
<pdfrwt beam="2">  1       21 0.24664702E+00 0.34282940E+03</pdfrwt>
<totfact> 0.65796959E+02</totfact>
</mgrwt>
</event>
<event>
 6      1 +2.5168323e+02 1.77845100e+02 7.54677100e-03 1.16820100e-01
       21 -1    0    0  501  502 +0.0000000000e+00 +0.0000000000e+00 +7.4805491005e+01 7.4805491005e+01 0.0000000000e+00 0.0000e+00 -1.0000e+00
       21 -1    0    0  504  503 -0.0000000000e+00 -0.0000000000e+00 -8.6778600747e+02 8.6778600747e+02 0.0000000000e+00 0.0000e+00 1.0000e+00
        6  1    1    2  501    0 -2.3708572149e+01 +4.1736473330e+01 -2.7429720929e+02 3.2782920649e+02 1.7300000000e+02 0.0000e+00 -1.0000e+00
       -6  1    1    2    0  503 -1.3229159387e+01 -3.1176357659e+01 -4.6761657521e+02 4.9974117035e+02 1.7300000000e+02 0.0000e+00 1.0000e+00
       21  1    1    2  504  505 -4.6466088941e-01 -2.7650194895e+01 -6.5771854493e+01 7.1349043658e+01 0.0000000000e+00 0.0000e+00 1.0000e+00
       21  1    1    2  505  502 +3.7402392426e+01 +1.7090079224e+01 +1.4705122524e+01 4.3672077984e+01 0.0000000000e+00 0.0000e+00 -1.0000e+00
<mgrwt>
<rscale>  4 0.17784511E+03</rscale>
<asrwt>0</asrwt>
<pdfrwt beam="1">  1       21 0.11508537E-01 0.17784511E+03</pdfrwt>
<pdfrwt beam="2">  1       21 0.13350554E+00 0.17784511E+03</pdfrwt>
<totfact> 0.25790392E+04</totfact>
</mgrwt>
</event>
<event>
 6      1 +2.5168323e+02 2.21093400e+02 7.54677100e-03 1.17389200e-01
       21 -1    0    0  504  502 +0.0000000000e+00 +0.0000000000e+00 +1.0736877988e+02 1.0736877988e+02 0.0000000000e+00 0.0000e+00 1.0000e+00
       21 -1    0    0  501  503 -0.0000000000e+00 -0.0000000000e+00 -9.4316404631e+02 9.4316404631e+02 0.0000000000e+00 0.0000e+00 1.0000e+00
        6  1    1    2  501    0 -8.5752586892e+01 +1.4522628711e+02 -2.4095785824e+02 3.4122407605e+02 1.7300000000e+02 0.0000e+00 1.0000e+00
       -6  1    1    2    0  502 +6.7955192512e+00 -1.2199869400e+02 -1.5736691436e+02 2.6386209685e+02 1.7300000000e+02 0.0000e+00 -1.0000e+00
       21  1    1    2  504  505 +5.3760512818e+01 -8.3360727347e+00 -3.0035651059e+02 3.0524369986e+02 0.0000000000e+00 0.0000e+00 1.0000e+00
       21  1    1    2  505  503 +2.5196554823e+01 -1.4891520372e+01 -1.3711398324e+02 1.4020295345e+02 0.0000000000e+00 0.0000e+00 1.0000e+00
<mgrwt>
<rscale>  4 0.22109335E+03</rscale>
<asrwt>0</asrwt>
<pdfrwt beam="1">  1       21 0.16518273E-01 0.22109335E+03</pdfrwt>
<pdfrwt beam="2">  1       21 0.14510217E+00 0.22109335E+03</pdfrwt>
<totfact> 0.10507448E+04</totfact>
</mgrwt>
</event>
<event>
 6      1 +2.5168323e+02 1.96458800e+02 7.54677100e-03 1.07852700e-01
       21 -1    0    0  504  502 +0.0000000000e+00 +0.0000000000e+00 +2.1449786448e+02 2.1449786448e+02 0.0000000000e+00 0.0000e+00 -1.0000e+00
       21 -1    0    0  505  503 -0.0000000000e+00 -0.0000000000e+00 -6.2027856834e+02 6.2027856834e+02 0.0000000000e+00 0.0000e+00 1.0000e+00
        6  1    1    2  501    0 +3.3835165921e+01 +3.0701196303e+01 -1.9050825327e+02 2.6136139055e+02 1.7300000000e+02 0.0000e+00 1.0000e+00
       -6  1    1    2    0  503 -1.0929532160e+02 -8.1569431384e+01 -3.4415402510e+02 4.0861966724e+02 1.7300000000e+02 0.0000e+00 1.0000e+00
       21  1    1    2  504  501 +4.3580505182e+01 +4.6569792380e+01 +1.1092573692e+02 1.2795516835e+02 0.0000000000e+00 0.0000e+00 -1.0000e+00
       21  1    1    2  505  502 +3.1879650493e+01 +4.2984427010e+00 +1.7955837586e+01 3.6840206685e+01 0.0000000000e+00 0.0000e+00 -1.0000e+00
<mgrwt>
<rscale>  4 0.19645883E+03</rscale>
<asrwt>0</asrwt>
<pdfrwt beam="1">  1       21 0.32999672E-01 0.19645883E+03</pdfrwt>
<pdfrwt beam="2">  1       21 0.95427471E-01 0.19645883E+03</pdfrwt>
<totfact> 0.80815805E+03</totfact>
</mgrwt>
</event>
<event>
 6      1 +2.5168323e+02 2.00409300e+02 7.54677100e-03 1.17362400e-01
       21 -1    0    0  503  502 +0.0000000000e+00 +0.0000000000e+00 +4.9927431872e+02 4.9927431872e+02 0.0000000000e+00 0.0000e+00 1.0000e+00
       21 -1    0    0  505  503 -0.0000000000e+00 -0.0000000000e+00 -4.0285285296e+02 4.0285285296e+02 0.0000000000e+00 0.0000e+00 -1.0000e+00
        6  1    1    2  501    0 -6.9567395316e+01 -1.4011641840e+02 -1.9393829723e+02 3.0333693532e+02 1.7300000000e+02 0.0000e+00 -1.0000e+00
       -6  1    1    2    0  502 -1.9210705257e+01 +7.6437640284e+01 +3.6278420723e+02 4.0957678775e+02 1.7300000000e+02 0.0000e+00 1.0000e+00
       21  1    1    2  504  501 +4.5209534759e+01 +1.7976002428e+01 +3.8186668670e+01 6.1848689239e+01 0.0000000000e+00 0.0000e+00 1.0000e+00
       21  1    1    2  505  504 +4.3568565814e+01 +4.5702775685e+01 -1.1061111291e+02 1.2736475938e+02 0.0000000000e+00 0.0000e+00 -1.0000e+00
<mgrwt>
<rscale>  4 0.20040931E+03</rscale>
<asrwt>0</asrwt>
<pdfrwt beam="1">  1       21 0.76811433E-01 0.20040931E+03</pdfrwt>
<pdfrwt beam="2">  1       21 0.61977362E-01 0.20040931E+03</pdfrwt>
<totfact> 0.36190330E+03</totfact>
</mgrwt>
</event>
<event>
 6      1 +2.5168323e+02 1.80346500e+02 7.54677100e-03 1.11910500e-01
       21 -1    0    0  501  502 +0.0000000000e+00 +0.0000000000e+00 +2.1882332171e+02 2.1882332171e+02 0.0000000000e+00 0.0000e+00 1.0000e+00
       21 -1    0    0  505  503 -0.0000000000e+00 -0.0000000000e+00 -1.7383312201e+03 1.7383312201e+03 0.0000000000e+00 0.0000e+00 -1.0000e+00
        6  1    1    2  501    0 -3.9054646282e+01 -2.2495119348e+00 -3.9851955151e+01 1.8178972476e+02 1.7300000000e+02 0.0000e+00 -1.0000e+00
       -6  1    1    2    0  504 +2.6572550918e+00 -7.6835802727e+01 +8.2539574042e+01 2.0652501754e+02 1.7300000000e+02 0.0000e+00 1.0000e+00
       21  1    1    2  504  503 +7.0611772133e+00 -2.0794989866e+01 -7.9001980131e+01 8.1997589548e+01 0.0000000000e+00 0.0000e+00 1.0000e+00
       21  1    1    2  505  502 +2.9336213977e+01 +9.9880304527e+01 -1.4831935371e+03 1.4868422099e+03 0.0000000000e+00 0.0000e+00 -1.0000e+00
<mgrwt>
<rscale>  4 0.18034652E+03</rscale>
<asrwt>0</asrwt>
<pdfrwt beam="1">  1       21 0.33665127E-01 0.18034652E+03</pdfrwt>
<pdfrwt beam="2">  1       21 0.26743557E+00 0.18034652E+03</pdfrwt>
<totfact> 0.45502662E+02</totfact>
</mgrwt>
</event>
<event>
 6      1 +2.5168323e+02 2.86272600e+02 7.54677100e-03 1.11634100e-01
       21 -1    0    0  504  502 +0.0000000000e+00 +0.0000000000e+00 +7.1252835826e+02 7.1252835826e+02 0.0000000000e+00 0.0000e+00 1.0000e+00
       21 -1    0    0  505  503 -0.0000000000e+00 -0.0000000000e+00 -3.5063086344e+02 3.5063086344e+02 0.0000000000e+00 0.0000e+00 1.0000e+00
        6  1    1    2  501    0 +1.7132484250e+02 +2.4418753183e+02 -2.8403347138e+00 3.4484318155e+02 1.7300000000e+02 0.0000e+00 1.0000e+00
       -6  1    1    2    0  502 -1.6037341227e+02 -1.5519011963e+02 +3.4374550360e+02 4.4485230789e+02 1.7300000000e+02 0.0000e+00 1.0000e+00
       21  1    1    2  504  503 +2.5061859464e+01 +6.1011744144e+00 +1.2521907006e+02 1.2784809985e+02 0.0000000000e+00 0.0000e+00 1.0000e+00
       21  1    1    2  505  501 -3.6013289698e+01 -9.5098586613e+01 -1.0422674413e+02 1.4561563241e+02 0.0000000000e+00 0.0000e+00 -1.0000e+00
<mgrwt>
<rscale>  4 0.28627259E+03</rscale>
<asrwt>0</asrwt>
<pdfrwt beam="1">  1       21 0.10961975E+00 0.28627259E+03</pdfrwt>
<pdfrwt beam="2">  1       21 0.53943210E-01 0.28627259E+03</pdfrwt>
<totfact> 0.19930293E+03</totfact>
</mgrwt>
</event>
<event>
 6      1 +2.5168323e+02 2.26414600e+02 7.54677100e-03 1.16820100e-01
       21 -1    0    0  505  502 +0.0000000000e+00 +0.0000000000e+00 +9.5231943123e+02 9.5231943123e+02 0.0000000000e+00 0.0000e+00 -1.0000e+00
       21 -1    0    0  501  503 -0.0000000000e+00 -0.0000000000e+00 -2.3874945606e+02 2.3874945606e+02 0.0000000000e+00 0.0000e+00 1.0000e+00
        6  1    1    2  501    0 +7.8489941450e+01 -1.3288833657e+02 +1.5833469913e+02 2.8074696411e+02 1.7300000000e+02 0.0000e+00 1.0000e+00
       -6  1    1    2    0  502 -3.1444999892e+01 +1.2818489189e+02 +6.6305038410e+02 6.9784308149e+02 1.7300000000e+02 0.0000e+00 -1.0000e+00
       21  1    1    2  504  503 -3.2573979198e+01 -1.0507511438e+01 -1.5610991043e+02 1.5981794659e+02 0.0000000000e+00 0.0000e+00 1.0000e+00
       21  1    1    2  505  504 -1.4470962360e+01 +1.5210956120e+01 +4.8294802368e+01 5.2660895107e+01 0.0000000000e+00 0.0000e+00 1.0000e+00
<mgrwt>
<rscale>  4 0.22641461E+03</rscale>
<asrwt>0</asrwt>
<pdfrwt beam="1">  1       21 0.14651068E+00 0.22641461E+03</pdfrwt>
<pdfrwt beam="2">  1       21 0.36730686E-01 0.22641461E+03</pdfrwt>
<totfact> 0.22055168E+03</totfact>
</mgrwt>
</event>
<event>
 6      1 +2.5168323e+02 2.20945800e+02 7.54677100e-03 1.17109600e-01
       21 -1    0    0  504  502 +0.0000000000e+00 +0.0000000000e+00 +1.6495669204e+02 1.6495669204e+02 0.0000000000e+00 0.0000e+00 -1.0000e+00
       21 -1    0    0  501  503 -0.0000000000e+00 -0.0000000000e+00 -6.6446677624e+02 6.6446677624e+02 0.0000000000e+00 0.0000e+00 1.0000e+00
        6  1    1    2  501    0 +9.3055375115e+01 -1.6523367732e+02 -4.0758142628e+02 4.8167737129e+02 1.7300000000e+02 0.0000e+00 1.0000e+00
       -6  1    1    2    0  505 -6.3661252956e+01 +7.7013603157e+01 -1.8538892853e+00 1.9979060815e+02 1.7300000000e+02 0.0000e+00 -1.0000e+00
       21  1    1    2  504  503 +1.9718649622e+01 +5.2223145769e+01 -3.5258099731e+01 6.6024356821e+01 0.0000000000e+00 0.0000e+00 1.0000e+00
       21  1    1    2  505  502 -4.9112771781e+01 +3.5996928394e+01 -5.4816668903e+01 8.1931132028e+01 0.0000000000e+00 0.0000e+00 1.0000e+00
<mgrwt>
<rscale>  4 0.22094580E+03</rscale>
<asrwt>0</asrwt>
<pdfrwt beam="1">  1       21 0.25377953E-01 0.22094580E+03</pdfrwt>
<pdfrwt beam="2">  1       21 0.10222566E+00 0.22094580E+03</pdfrwt>
<totfact> 0.11250956E+04</totfact>
</mgrwt>
</event>
<event>
 6      1 +2.5168323e+02 2.09808900e+02 7.54677100e-03 1.07852700e-01
       21 -1    0    0  504  502 +0.0000000000e+00 +0.0000000000e+00 +1.8070019269e+02 1.8070019269e+02 0.0000000000e+00 0.0000e+00 1.0000e+00
       21 -1    0    0  505  503 -0.0000000000e+00 -0.0000000000e+00 -6.5928292504e+02 6.5928292504e+02 0.0000000000e+00 0.0000e+00 -1.0000e+00
        6  1    1    2  501    0 +1.4846493070e+01 +1.2277721259e+02 -1.2298870476e+02 2.4566213340e+02 1.7300000000e+02 0.0000e+00 -1.0000e+00
       -6  1    1    2    0  503 +8.3695462320e+01 -1.2113001386e+02 -2.5613929101e+02 3.4236493259e+02 1.7300000000e+02 0.0000e+00 1.0000e+00
       21  1    1    2  504  501 -1.1831973514e+02 +2.2643338418e+01 -1.5006497039e+02 1.9243642024e+02 0.0000000000e+00 0.0000e+00 -1.0000e+00
       21  1    1    2  505  502 +1.9777779754e+01 -2.4290537148e+01 +5.0610233803e+01 5.9519631489e+01 0.0000000000e+00 0.0000e+00 1.0000e+00
<mgrwt>
<rscale>  4 0.20980890E+03</rscale>
<asrwt>0</asrwt>
<pdfrwt beam="1">  1       21 0.27800030E-01 0.20980890E+03</pdfrwt>
<pdfrwt beam="2">  1       21 0.10142814E+00 0.20980890E+03</pdfrwt>
<totfact> 0.96877618E+03</totfact>
</mgrwt>
</event>
<event>
 6      1 +2.5168323e+02 1.79636600e+02 7.54677100e-03 1.11910500e-01
       21 -1    0    0  501  502 +0.0000000000e+00 +0.0000000000e+00 +9.5794634692e+01 9.5794634692e+01 0.0000000000e+00 0.0000e+00 1.0000e+00
       21 -1    0    0  505  503 -0.0000000000e+00 -0.0000000000e+00 -8.4845461145e+02 8.4845461145e+02 0.0000000000e+00 0.0000e+00 1.0000e+00
        6  1    1    2  501    0 -5.1302237477e+01 -3.4295028405e+01 -4.5733671158e+02 4.9284270949e+02 1.7300000000e+02 0.0000e+00 1.0000e+00
       -6  1    1    2    0  504 +1.7917107964e+01 +4.3468656800e+01 -5.3824193992e+01 1.8718063666e+02 1.7300000000e+02 0.0000e+00 1.0000e+00
       21  1    1    2  504  503 -2.3747456545e+01 -1.1145085120e+01 -1.7312967454e+02 1.7510579323e+02 0.0000000000e+00 0.0000e+00 1.0000e+00
       21  1    1    2  505  502 +5.7132586058e+01 +1.9714567245e+00 -6.8369396639e+01 8.9120106755e+01 0.0000000000e+00 0.0000e+00 1.0000e+00
<mgrwt>
<rscale>  4 0.17963659E+03</rscale>
<asrwt>0</asrwt>
<pdfrwt beam="1">  1       21 0.14737636E-01 0.17963659E+03</pdfrwt>
<pdfrwt beam="2">  1       21 0.13053148E+00 0.17963659E+03</pdfrwt>
<totfact> 0.17481880E+04</totfact>
</mgrwt>
</event>
<event>
 6      1 +2.5168323e+02 1.77598300e+02 7.54677100e-03 1.11634100e-01
       21 -1    0    0  504  502 +0.0000000000e+00 +0.0000000000e+00 +1.2696571017e+03 1.2696571017e+03 0.0000000000e+00 0.0000e+00 1.0000e+00
       21 -1    0    0  505  503 -0.0000000000e+00 -0.0000000000e+00 -1.3250809216e+02 1.3250809216e+02 0.0000000000e+00 0.0000e+00 1.0000e+00
        6  1    1    2  501    0 -7.9883036451e+01 -4.8362714833e+00 +9.1316767075e+01 2.1135856023e+02 1.7300000000e+02 0.0000e+00 1.0000e+00
       -6  1    1    2    0  502 -8.1220125753e+01 -9.1861710436e+01 +1.8084194626e+02 2.7868995712e+02 1.7300000000e+02 0.0000e+00 1.0000e+00
       21  1    1    2  504  503 +1.0075567609e+02 +6.8743433208e+01 +8.2613497165e+02 8.3509062817e+02 0.0000000000e+00 0.0000e+00 1.0000e+00
       21  1    1    2  505  501 +6.0347486111e+01 +2.7954548712e+01 +3.8855324532e+01 7.7026048309e+01 0.0000000000e+00 0.0000e+00 1.0000e+00
<mgrwt>
<rscale>  4 0.17759830E+03</rscale>
<asrwt>0</asrwt>
<pdfrwt beam="1">  1       21 0.19533185E+00 0.17759830E+03</pdfrwt>
<pdfrwt beam="2">  1       21 0.20385861E-01 0.17759830E+03</pdfrwt>
<totfact> 0.32543496E+03</totfact>
</mgrwt>
</event>
<event>
 6      1 +2.5168323e+02 1.90325700e+02 7.54677100e-03 1.16820100e-01
       21 -1    0    0  501  502 +0.0000000000e+00 +0.0000000000e+00 +1.2398988102e+03 1.2398988102e+03 0.0000000000e+00 0.0000e+00 -1.0000e+00
       21 -1    0    0  504  503 -0.0000000000e+00 -0.0000000000e+00 -1.5998768314e+02 1.5998768314e+02 0.0000000000e+00 0.0000e+00 -1.0000e+00
        6  1    1    2  501    0 +4.3267276119e+01 -5.8730987583e+01 +7.5271761301e+02 7.7577973100e+02 1.7300000000e+02 0.0000e+00 -1.0000e+00
       -6  1    1    2    0  503 -7.0602240241e+01 -6.9578585699e+00 -3.1567433296e+01 1.8962750583e+02 1.7300000000e+02 0.0000e+00 -1.0000e+00
       21  1    1    2  504  505 +2.6203941128e+00 +5.6617956716e+01 -1.5922046453e+01 5.8872498259e+01 0.0000000000e+00 0.0000e+00 -1.0000e+00
       21  1    1    2  505  502 +2.4714570009e+01 +9.0708894371e+00 +3.7468299375e+02 3.7560675821e+02 0.0000000000e+00 0.0000e+00 1.0000e+00
<mgrwt>
<rscale>  4 0.19032568E+03</rscale>
<asrwt>0</asrwt>
<pdfrwt beam="1">  1       21 0.19075366E+00 0.19032568E+03</pdfrwt>
<pdfrwt beam="2">  1       21 0.24613490E-01 0.19032568E+03</pdfrwt>
<totfact> 0.24117720E+03</totfact>
</mgrwt>
</event>
<event>
 6      1 +2.5168323e+02 2.19445700e+02 7.54677100e-03 1.14278100e-01
       21 -1    0    0  501  502 +0.0000000000e+00 +0.0000000000e+00 +6.8565485009e+02 6.8565485009e+02 0.0000000000e+00 0.0000e+00 1.0000e+00
       21 -1    0    0  504  503 -0.0000000000e+00 -0.0000000000e+00 -1.3970738905e+03 1.3970738905e+03 0.0000000000e+00 0.0000e+00 1.0000e+00
        6  1    1    2  501    0 -6.9658688825e+01 -1.1688623770e+02 -1.2279923260e+03 1.2475611722e+03 1.7300000000e+02 0.0000e+00 1.0000e+00
       -6  1    1    2    0  505 +7.3812197164e+00 +1.4041797575e+02 -6.8617590814e+01 2.3325750596e+02 1.7300000000e+02 0.0000e+00 -1.0000e+00
       21  1    1    2  504  502 +4.1791749786e+01 +4.6956491500e+01 +3.4760125776e+02 3.5323943274e+02 0.0000000000e+00 0.0000e+00 1.0000e+00
       21  1    1    2  505  503 +2.0485719323e+01 -7.0488229551e+01 +2.3758961866e+02 2.4867062974e+02 0.0000000000e+00 0.0000e+00 1.0000e+00
<mgrwt>
<rscale>  4 0.21944573E+03</rscale>
<asrwt>0</asrwt>
<pdfrwt beam="1">  1       21 0.10548536E+00 0.21944573E+03</pdfrwt>
<pdfrwt beam="2">  1       21 0.21493444E+00 0.21944573E+03</pdfrwt>
<totfact> 0.75175359E+01</totfact>
</mgrwt>
</event>
<event>
 6      1 +2.5168323e+02 1.84519700e+02 7.54677100e-03 1.16820100e-01
       21 -1    0    0  505  502 +0.0000000000e+00 +0.0000000000e+00 +2.1465307317e+02 2.1465307317e+02 0.0000000000e+00 0.0000e+00 -1.0000e+00
       21 -1    0    0  501  503 -0.0000000000e+00 -0.0000000000e+00 -3.1165551523e+02 3.1165551523e+02 0.0000000000e+00 0.0000e+00 -1.0000e+00
        6  1    1    2  501    0 -8.4664864978e+01 +3.7670381333e+01 -2.8661336795e+01 1.9833726130e+02 1.7300000000e+02 0.0000e+00 -1.0000e+00
       -6  1    1    2    0  502 +4.5310310500e+01 +1.8679280860e+01 +1.1645396964e+01 1.8018478027e+02 1.7300000000e+02 0.0000e+00 -1.0000e+00
       21  1    1    2  504  503 +3.0236022660e+01 -2.4652372666e+01 -1.0127564911e+02 1.0852978230e+02 0.0000000000e+00 0.0000e+00 -1.0000e+00
       21  1    1    2  505  504 +9.1185318176e+00 -3.1697289527e+01 +2.1289146881e+01 3.9256764523e+01 0.0000000000e+00 0.0000e+00 1.0000e+00
<mgrwt>
<rscale>  4 0.18451971E+03</rscale>
<asrwt>0</asrwt>
<pdfrwt beam="1">  1       21 0.33023550E-01 0.18451971E+03</pdfrwt>
<pdfrwt beam="2">  1       21 0.47947002E-01 0.18451971E+03</pdfrwt>
<totfact> 0.36854611E+04</totfact>
</mgrwt>
</event>
<event>
 6      1 +2.5168323e+02 2.66327100e+02 7.54677100e-03 1.17389200e-01
       21 -1    0    0  504  502 +0.0000000000e+00 +0.0000000000e+00 +1.4681224651e+02 1.4681224651e+02 0.0000000000e+00 0.0000e+00 -1.0000e+00
       21 -1    0    0  501  503 -0.0000000000e+00 -0.0000000000e+00 -9.1752208635e+02 9.1752208635e+02 0.0000000000e+00 0.0000e+00 -1.0000e+00
        6  1    1    2  501    0 +2.4141423264e+02 +1.3803673751e+02 -2.9550172062e+02 4.4111816956e+02 1.7300000000e+02 0.0000e+00 -1.0000e+00
       -6  1    1    2    0  502 -1.5574056891e+02 -1.2947363241e+01 -2.1456807015e+02 3.1684572862e+02 1.7300000000e+02 0.0000e+00 -1.0000e+00
       21  1    1    2  504  505 -4.9769309278e+01 -3.5602958471e+01 -1.3302732261e+02 1.4642685327e+02 0.0000000000e+00 0.0000e+00 1.0000e+00
       21  1    1    2  505  503 -3.5904354444e+01 -8.9486415803e+01 -1.2761272646e+02 1.5994358142e+02 0.0000000000e+00 0.0000e+00 -1.0000e+00
<mgrwt>
<rscale>  4 0.26632713E+03</rscale>
<asrwt>0</asrwt>
<pdfrwt beam="1">  1       21 0.22586499E-01 0.26632713E+03</pdfrwt>
<pdfrwt beam="2">  1       21 0.14115725E+00 0.26632713E+03</pdfrwt>
<totfact> 0.61104602E+03</totfact>
</mgrwt>
</event>
<event>
 6      1 +2.5168323e+02 1.80822500e+02 7.54677100e-03 1.11316500e-01
       21 -1    0    0  505  502 +0.0000000000e+00 +0.0000000000e+00 +3.3722339328e+02 3.3722339328e+02 0.0000000000e+00 0.0000e+00 -1.0000e+00
       21 -1    0    0  504  503 -0.0000000000e+00 -0.0000000000e+00 -2.1020596710e+02 2.1020596710e+02 0.0000000000e+00 0.0000e+00 -1.0000e+00
        6  1    1    2  501    0 -4.3975105978e+01 +2.8574542980e+01 +1.2072903683e+02 2.1738172597e+02 1.7300000000e+02 0.0000e+00 -1.0000e+00
       -6  1    1    2    0  502 +4.8094947606e+01 -2.2442739089e+01 +9.3423721687e+01 2.0365115344e+02 1.7300000000e+02 0.0000e+00 -1.0000e+00
       21  1    1    2  504  501 -2.5197095414e+01 -1.5447247110e+01 +6.2509503000e+00 3.0209029118e+01 0.0000000000e+00 0.0000e+00 -1.0000e+00
       21  1    1    2  505  503 +2.1077253786e+01 +9.3154432187e+00 -9.3386282636e+01 9.6187451853e+01 0.0000000000e+00 0.0000e+00 -1.0000e+00
<mgrwt>
<rscale>  4 0.18082254E+03</rscale>
<asrwt>0</asrwt>
<pdfrwt beam="1">  1       21 0.51880522E-01 0.18082254E+03</pdfrwt>
<pdfrwt beam="2">  1       21 0.32339380E-01 0.18082254E+03</pdfrwt>
<totfact> 0.32653625E+04</totfact>
</mgrwt>
</event>
<event>
 6      1 +2.5168323e+02 2.16029300e+02 7.54677100e-03 1.17389200e-01
       21 -1    0    0  504  502 +0.0000000000e+00 +0.0000000000e+00 +4.4238864557e+02 4.4238864557e+02 0.0000000000e+00 0.0000e+00 1.0000e+00
       21 -1    0    0  501  503 -0.0000000000e+00 -0.0000000000e+00 -4.5255769466e+02 4.5255769466e+02 0.0000000000e+00 0.0000e+00 1.0000e+00
        6  1    1    2  501    0 -5.7228152019e+01 -1.4821231813e+02 +3.2068535480e+02 3.9750477911e+02 1.7300000000e+02 0.0000e+00 1.0000e+00
       -6  1    1    2    0  502 -6.1157551250e+01 +2.9373484627e+01 -1.0194558441e+02 2.1195506565e+02 1.7300000000e+02 0.0000e+00 1.0000e+00
       21  1    1    2  504  505 +9.7672967981e+01 +7.9200999714e+01 -1.7357474899e+02 2.1433851851e+02 0.0000000000e+00 0.0000e+00 1.0000e+00
       21  1    1    2  505  503 +2.0712735289e+01 +3.9637833785e+01 -5.5334070485e+01 7.1147976969e+01 0.0000000000e+00 0.0000e+00 1.0000e+00
<mgrwt>
<rscale>  4 0.21602926E+03</rscale>
<asrwt>0</asrwt>
<pdfrwt beam="1">  1       21 0.68059791E-01 0.21602926E+03</pdfrwt>
<pdfrwt beam="2">  1       21 0.69624261E-01 0.21602926E+03</pdfrwt>
<totfact> 0.36274099E+03</totfact>
</mgrwt>
</event>
<event>
 6      1 +2.5168323e+02 1.73043400e+02 7.54677100e-03 1.07852700e-01
       21 -1    0    0  504  502 +0.0000000000e+00 +0.0000000000e+00 +1.4552824472e+02 1.4552824472e+02 0.0000000000e+00 0.0000e+00 1.0000e+00
       21 -1    0    0  505  503 -0.0000000000e+00 -0.0000000000e+00 -9.6269009286e+02 9.6269009286e+02 0.0000000000e+00 0.0000e+00 1.0000e+00
        6  1    1    2  501    0 -1.5554131242e+01 +4.4357714520e+00 -7.2141511350e+02 7.4204472443e+02 1.7300000000e+02 0.0000e+00 1.0000e+00
       -6  1    1    2    0  503 -4.4483223810e+01 +2.8027541748e+01 -1.6713698927e+02 2.4622768626e+02 1.7300000000e+02 0.0000e+00 1.0000e+00
       21  1    1    2  504  501 +2.4800675271e+01 +1.7688258451e+01 +4.2229427473e+01 5.2069881175e+01 0.0000000000e+00 0.0000e+00 1.0000e+00
       21  1    1    2  505  502 +3.5236679781e+01 -5.0151571651e+01 +2.9160827167e+01 6.7876045717e+01 0.0000000000e+00 0.0000e+00 1.0000e+00
<mgrwt>
<rscale>  4 0.17304341E+03</rscale>
<asrwt>0</asrwt>
<pdfrwt beam="1">  1       21 0.22388960E-01 0.17304341E+03</pdfrwt>
<pdfrwt beam="2">  1       21 0.14810617E+00 0.17304341E+03</pdfrwt>
<totfact> 0.58685560E+03</totfact>
</mgrwt>
</event>
<event>
 6      1 +2.5168323e+02 2.60609600e+02 7.54677100e-03 1.06012000e-01
       21 -1    0    0  504  502 +0.0000000000e+00 +0.0000000000e+00 +1.5307582083e+03 1.5307582083e+03 0.0000000000e+00 0.0000e+00 1.0000e+00
       21 -1    0    0  505  503 -0.0000000000e+00 -0.0000000000e+00 -5.0851258119e+02 5.0851258119e+02 0.0000000000e+00 0.0000e+00 1.0000e+00
        6  1    1    2  501    0 -1.2851417796e+02 -4.0462844457e+01 -2.8801889964e+02 3.6199036212e+02 1.7300000000e+02 0.0000e+00 1.0000e+00
       -6  1    1    2    0  502 -7.8563873075e+01 -1.7175475805e+02 +1.3493045571e+03 1.3733986191e+03 1.7300000000e+02 0.0000e+00 1.0000e+00
       21  1    1    2  504  503 +2.7319544428e+01 +1.2636677255e+01 -1.6530179387e+01 3.4340791347e+01 0.0000000000e+00 0.0000e+00 -1.0000e+00
       21  1    1    2  505  501 +1.7975850661e+02 +1.9958092525e+02 -2.2509850968e+01 2.6954101694e+02 0.0000000000e+00 0.0000e+00 1.0000e+00
<mgrwt>
<rscale>  4 0.24959778E+03</rscale>
<asrwt>0</asrwt>
<pdfrwt beam="1">  1       21 0.23550126E+00 0.26060955E+03</pdfrwt>
<pdfrwt beam="2">  1       21 0.78232706E-01 0.26060955E+03</pdfrwt>
<totfact> 0.10743980E+02</totfact>
</mgrwt>
</event>
<event>
 6      1 +2.5168323e+02 5.19723000e+02 7.54677100e-03 1.17341900e-01
       21 -1    0    0  505  502 +0.0000000000e+00 +0.0000000000e+00 +6.2788442764e+02 6.2788442764e+02 0.0000000000e+00 0.0000e+00 -1.0000e+00
       21 -1    0    0  504  503 -0.0000000000e+00 -0.0000000000e+00 -6.6735845204e+02 6.6735845204e+02 0.0000000000e+00 0.0000e+00 1.0000e+00
        6  1    1    2  501    0 +4.7982904780e+02 +6.4546806122e+01 -1.9808656129e+02 5.5097140675e+02 1.7300000000e+02 0.0000e+00 1.0000e+00
       -6  1    1    2    0  503 -4.9594220454e+02 -1.5572337263e+02 +3.3178064455e+01 5.4885173134e+02 1.7300000000e+02 0.0000e+00 -1.0000e+00
       21  1    1    2  504  502 +3.9157874516e+01 +9.7658395452e+01 +1.3366241085e+02 1.7010626506e+02 0.0000000000e+00 0.0000e+00 -1.0000e+00
       21  1    1    2  505  501 -2.3044717776e+01 -6.4818289405e+00 -8.2279384153e+00 2.5313476536e+01 0.0000000000e+00 0.0000e+00 1.0000e+00
<mgrwt>
<rscale>  4 0.51972302E+03</rscale>
<asrwt>0</asrwt>
<pdfrwt beam="1">  1       21 0.96597604E-01 0.51972302E+03</pdfrwt>
<pdfrwt beam="2">  1       21 0.10267053E+00 0.51972302E+03</pdfrwt>
<totfact> 0.56032290E+02</totfact>
</mgrwt>
</event>
<event>
 6      1 +2.5168323e+02 2.77569800e+02 7.54677100e-03 1.09588500e-01
       21 -1    0    0  505  502 +0.0000000000e+00 +0.0000000000e+00 +7.4433801493e+02 7.4433801493e+02 0.0000000000e+00 0.0000e+00 -1.0000e+00
       21 -1    0    0  502  503 -0.0000000000e+00 -0.0000000000e+00 -2.0973733087e+02 2.0973733087e+02 0.0000000000e+00 0.0000e+00 1.0000e+00
        6  1    1    2  501    0 -1.7787452277e+02 -1.3181171933e+02 +3.4203295764e+02 4.4263892657e+02 1.7300000000e+02 0.0000e+00 -1.0000e+00
       -6  1    1    2    0  504 +1.2459876689e+02 +1.7131778779e+02 +1.5530574860e+02 3.1452108462e+02 1.7300000000e+02 0.0000e+00 1.0000e+00
       21  1    1    2  504  503 +1.7827358355e+01 -3.0710797757e+01 +1.0996370098e+02 1.1555510953e+02 0.0000000000e+00 0.0000e+00 1.0000e+00
       21  1    1    2  505  501 +3.5448397529e+01 -8.7952707103e+00 -7.2701723161e+01 8.1360225078e+01 0.0000000000e+00 0.0000e+00 1.0000e+00
<mgrwt>
<rscale>  4 0.27756983E+03</rscale>
<asrwt>0</asrwt>
<pdfrwt beam="1">  1       21 0.11451354E+00 0.27756983E+03</pdfrwt>
<pdfrwt beam="2">  1       21 0.32267282E-01 0.27756983E+03</pdfrwt>
<totfact> 0.51666284E+03</totfact>
</mgrwt>
</event>
<event>
 6      1 +2.5168323e+02 1.91641400e+02 7.54677100e-03 1.17389200e-01
       21 -1    0    0  504  502 +0.0000000000e+00 +0.0000000000e+00 +4.6057666423e+01 4.6057666423e+01 0.0000000000e+00 0.0000e+00 1.0000e+00
       21 -1    0    0  501  503 -0.0000000000e+00 -0.0000000000e+00 -2.7868937904e+03 2.7868937904e+03 0.0000000000e+00 0.0000e+00 1.0000e+00
        6  1    1    2  501    0 -3.5109806568e+01 -7.1713574377e+01 -2.0655076587e+02 2.8101201780e+02 1.7300000000e+02 0.0000e+00 1.0000e+00
       -6  1    1    2    0  502 +8.0044570132e+01 +6.4946423628e+01 -1.2092987724e+03 1.2259517495e+03 1.7300000000e+02 0.0000e+00 1.0000e+00
       21  1    1    2  504  505 -2.1294370237e+01 +5.9548865459e+00 -3.4061209179e+02 3.4132903180e+02 0.0000000000e+00 0.0000e+00 1.0000e+00
       21  1    1    2  505  503 -2.3640393327e+01 +8.1226420346e-01 -9.8437449391e+02 9.8465865772e+02 0.0000000000e+00 0.0000e+00 1.0000e+00
<mgrwt>
<rscale>  4 0.19164142E+03</rscale>
<asrwt>0</asrwt>
<pdfrwt beam="1">  1       21 0.70857947E-02 0.19164142E+03</pdfrwt>
<pdfrwt beam="2">  1       21 0.42875290E+00 0.19164142E+03</pdfrwt>
<totfact> 0.84984047E+02</totfact>
</mgrwt>
</event>
<event>
 6      1 +2.5168323e+02 2.63275700e+02 7.54677100e-03 1.16820100e-01
       21 -1    0    0  504  502 +0.0000000000e+00 +0.0000000000e+00 +4.8547238639e+02 4.8547238639e+02 0.0000000000e+00 0.0000e+00 -1.0000e+00
       21 -1    0    0  501  503 -0.0000000000e+00 -0.0000000000e+00 -2.9137984081e+02 2.9137984081e+02 0.0000000000e+00 0.0000e+00 -1.0000e+00
        6  1    1    2  501    0 +1.8724631906e+02 -1.3127387943e+02 +1.6072484968e+02 3.2871795316e+02 1.7300000000e+02 0.0000e+00 -1.0000e+00
       -6  1    1    2    0  505 -1.6233932062e+02 +4.0237877961e+01 +5.2667803474e+00 2.4068627052e+02 1.7300000000e+02 0.0000e+00 -1.0000e+00
       21  1    1    2  504  503 -4.1295513393e+01 +4.1892951257e+01 -7.3057691184e+01 9.3796402023e+01 0.0000000000e+00 0.0000e+00 -1.0000e+00
       21  1    1    2  505  502 +1.6388514949e+01 +4.9143050215e+01 +1.0115860673e+02 1.1365160149e+02 0.0000000000e+00 0.0000e+00 -1.0000e+00
<mgrwt>
<rscale>  4 0.26327571E+03</rscale>
<asrwt>0</asrwt>
<pdfrwt beam="1">  1       21 0.74688059E-01 0.26327571E+03</pdfrwt>
<pdfrwt beam="2">  1       21 0.44827668E-01 0.26327571E+03</pdfrwt>
<totfact> 0.73250962E+03</totfact>
</mgrwt>
</event>
<event>
 6      1 +2.5168323e+02 1.80764000e+02 7.54677100e-03 1.11910500e-01
       21 -1    0    0  501  502 +0.0000000000e+00 +0.0000000000e+00 +1.1014503937e+03 1.1014503937e+03 0.0000000000e+00 0.0000e+00 -1.0000e+00
       21 -1    0    0  505  503 -0.0000000000e+00 -0.0000000000e+00 -9.4354896090e+01 9.4354896090e+01 0.0000000000e+00 0.0000e+00 -1.0000e+00
        6  1    1    2  501    0 +1.4006111819e+01 -5.1387683266e+01 +7.4802748190e+01 1.9586045108e+02 1.7300000000e+02 0.0000e+00 -1.0000e+00
       -6  1    1    2    0  504 -2.8158647761e+01 +4.4407524588e+01 +9.3219899052e+02 9.4957300699e+02 1.7300000000e+02 0.0000e+00 -1.0000e+00
       21  1    1    2  504  503 +4.4741441658e+00 +2.7171742880e+01 +3.3662897932e+00 2.7742629366e+01 0.0000000000e+00 0.0000e+00 -1.0000e+00
       21  1    1    2  505  502 +9.6783917764e+00 -2.0191584202e+01 -3.2725309071e+00 2.2629202339e+01 0.0000000000e+00 0.0000e+00 1.0000e+00
<mgrwt>
<rscale>  4 0.18076403E+03</rscale>
<asrwt>0</asrwt>
<pdfrwt beam="1">  1       21 0.16945390E+00 0.18076403E+03</pdfrwt>
<pdfrwt beam="2">  1       21 0.14516139E-01 0.18076403E+03</pdfrwt>
<totfact> 0.90507372E+03</totfact>
</mgrwt>
</event>
<event>
 6      1 +2.5168323e+02 2.63402800e+02 7.54677100e-03 1.16820100e-01
       21 -1    0    0  505  502 +0.0000000000e+00 +0.0000000000e+00 +2.1484820817e+02 2.1484820817e+02 0.0000000000e+00 0.0000e+00 -1.0000e+00
       21 -1    0    0  504  503 -0.0000000000e+00 -0.0000000000e+00 -7.6055903147e+02 7.6055903147e+02 0.0000000000e+00 0.0000e+00 -1.0000e+00
        6  1    1    2  501    0 -4.3957121002e+01 +5.6193099651e+01 -1.4387241642e+02 2.3604695537e+02 1.7300000000e+02 0.0000e+00 1.0000e+00
       -6  1    1    2    0  503 +1.4103025138e+02 +9.5937402068e+01 -1.9835903120e+02 3.1363804326e+02 1.7300000000e+02 0.0000e+00 -1.0000e+00
       21  1    1    2  504  502 -1.6509567606e+02 -1.4341257807e+02 -2.5792731643e+02 3.3815713856e+02 0.0000000000e+00 0.0000e+00 -1.0000e+00
       21  1    1    2  505  501 +6.8022545680e+01 -8.7179236539e+00 +5.4447940750e+01 8.7565102441e+01 0.0000000000e+00 0.0000e+00 -1.0000e+00
<mgrwt>
<rscale>  4 0.24028392E+03</rscale>
<asrwt>0</asrwt>
<pdfrwt beam="1">  1       21 0.33053571E-01 0.26340280E+03</pdfrwt>
<pdfrwt beam="2">  1       21 0.11700908E+00 0.26340280E+03</pdfrwt>
<totfact> 0.47097067E+03</totfact>
</mgrwt>
</event>
<event>
 6      1 +2.5168323e+02 2.92009300e+02 7.54677100e-03 1.16820100e-01
       21 -1    0    0  504  502 +0.0000000000e+00 +0.0000000000e+00 +5.1473542627e+02 5.1473542627e+02 0.0000000000e+00 0.0000e+00 -1.0000e+00
       21 -1    0    0  501  503 -0.0000000000e+00 -0.0000000000e+00 -1.0026020928e+03 1.0026020928e+03 0.0000000000e+00 0.0000e+00 -1.0000e+00
        6  1    1    2  501    0 -2.0344630690e+02 +6.2662947887e+01 -2.5130170873e+01 2.7545883597e+02 1.7300000000e+02 0.0000e+00 -1.0000e+00
       -6  1    1    2    0  505 +2.8255020675e+02 +8.4054705796e+01 -3.6943079519e+01 3.4379296681e+02 1.7300000000e+02 0.0000e+00 -1.0000e+00
       21  1    1    2  504  503 -1.0346222343e+02 -1.2352726167e+02 -6.5086574909e+02 6.7051445875e+02 0.0000000000e+00 0.0000e+00 -1.0000e+00
       21  1    1    2  505  502 +2.4358323570e+01 -2.3190392010e+01 +2.2507233294e+02 2.2757125755e+02 0.0000000000e+00 0.0000e+00 1.0000e+00
<mgrwt>
<rscale>  4 0.29200929E+03</rscale>
<asrwt>0</asrwt>
<pdfrwt beam="1">  1       21 0.79190066E-01 0.29200929E+03</pdfrwt>
<pdfrwt beam="2">  1       21 0.15424647E+00 0.29200929E+03</pdfrwt>
<totfact> 0.35493643E+02</totfact>
</mgrwt>
</event>
<event>
 6      1 +2.5168323e+02 2.47646500e+02 7.54677100e-03 8.60661900e-02
       21 -1    0    0  505  502 +0.0000000000e+00 +0.0000000000e+00 +2.8290118615e+02 2.8290118615e+02 0.0000000000e+00 0.0000e+00 -1.0000e+00
       21 -1    0    0  501  503 -0.0000000000e+00 -0.0000000000e+00 -1.0605128453e+03 1.0605128453e+03 0.0000000000e+00 0.0000e+00 1.0000e+00
        6  1    1    2  501    0 +8.3636923496e+01 +1.8040741302e+02 -8.7049872062e+02 9.0952679578e+02 1.7300000000e+02 0.0000e+00 1.0000e+00
       -6  1    1    2    0  502 -7.4191053115e+01 -7.8786308504e+01 -9.0094037847e+01 2.2306396039e+02 1.7300000000e+02 0.0000e+00 -1.0000e+00
       21  1    1    2  504  503 -1.6479448574e+01 -8.2893070448e+01 +1.5275754580e+02 1.7457863887e+02 0.0000000000e+00 0.0000e+00 -1.0000e+00
       21  1    1    2  505  504 +7.0335781931e+00 -1.8728034071e+01 +3.0223553509e+01 3.6244636418e+01 0.0000000000e+00 0.0000e+00 -1.0000e+00
<mgrwt>
<rscale>  4 0.24764646E+03</rscale>
<asrwt>0</asrwt>
<pdfrwt beam="1">  1       21 0.43523259E-01 0.24764646E+03</pdfrwt>
<pdfrwt beam="2">  1       21 0.16315582E+00 0.24764646E+03</pdfrwt>
<totfact> 0.11504467E+03</totfact>
</mgrwt>
</event>
<event>
 6      1 +2.5168323e+02 1.73539000e+02 7.54677100e-03 1.03924000e-01
       21 -1    0    0  504  502 +0.0000000000e+00 +0.0000000000e+00 +3.0040717055e+02 3.0040717055e+02 0.0000000000e+00 0.0000e+00 1.0000e+00
       21 -1    0    0  501  503 -0.0000000000e+00 -0.0000000000e+00 -7.7116043066e+02 7.7116043066e+02 0.0000000000e+00 0.0000e+00 1.0000e+00
        6  1    1    2  501    0 +2.8476003400e+01 +1.1019594906e+01 -5.8995746354e+02 6.1555757085e+02 1.7300000000e+02 0.0000e+00 1.0000e+00
       -6  1    1    2    0  505 +4.7616167003e+01 +3.3293713851e+01 -1.0760764410e+02 2.1185885823e+02 1.7300000000e+02 0.0000e+00 -1.0000e+00
       21  1    1    2  504  503 -3.3358702208e+01 -1.3220599567e+01 +1.1521369855e+02 1.2067221553e+02 0.0000000000e+00 0.0000e+00 1.0000e+00
       21  1    1    2  505  502 -4.2733468195e+01 -3.1092709191e+01 +1.1159814898e+02 1.2347895661e+02 0.0000000000e+00 0.0000e+00 1.0000e+00
<mgrwt>
<rscale>  4 0.17353897E+03</rscale>
<asrwt>0</asrwt>
<pdfrwt beam="1">  1       21 0.46216488E-01 0.17353897E+03</pdfrwt>
<pdfrwt beam="2">  1       21 0.11864007E+00 0.17353897E+03</pdfrwt>
<totfact> 0.24804746E+03</totfact>
</mgrwt>
</event>
<event>
 6      1 +2.5168323e+02 1.88896300e+02 7.54677100e-03 1.11634100e-01
       21 -1    0    0  503  502 +0.0000000000e+00 +0.0000000000e+00 +4.6886289095e+02 4.6886289095e+02 0.0000000000e+00 0.0000e+00 -1.0000e+00
       21 -1    0    0  505  503 -0.0000000000e+00 -0.0000000000e+00 -2.1780125447e+02 2.1780125447e+02 0.0000000000e+00 0.0000e+00 -1.0000e+00
        6  1    1    2  501    0 +2.2469860025e+01 -1.0096277142e+02 +9.7248926456e+01 2.2379617852e+02 1.7300000000e+02 0.0000e+00 -1.0000e+00
       -6  1    1    2    0  504 -3.0953788247e+00 +6.6041447291e+01 -8.7341275653e+01 2.0476462723e+02 1.7300000000e+02 0.0000e+00 -1.0000e+00
       21  1    1    2  504  502 -3.0719411626e+01 +1.5847986044e+01 +2.3121926166e+02 2.3378876764e+02 0.0000000000e+00 0.0000e+00 -1.0000e+00
       21  1    1    2  505  501 +1.1344930426e+01 +1.9073338089e+01 +9.9347240165e+00 2.4314572040e+01 0.0000000000e+00 0.0000e+00 1.0000e+00
<mgrwt>
<rscale>  4 0.18889628E+03</rscale>
<asrwt>0</asrwt>
<pdfrwt beam="1">  1       21 0.72132752E-01 0.18889628E+03</pdfrwt>
<pdfrwt beam="2">  1       21 0.33507885E-01 0.18889628E+03</pdfrwt>
<totfact> 0.14909989E+04</totfact>
</mgrwt>
</event>
<event>
 6      1 +2.5168323e+02 2.74787700e+02 7.54677100e-03 1.11634100e-01
       21 -1    0    0  504  502 +0.0000000000e+00 +0.0000000000e+00 +1.3437682172e+03 1.3437682172e+03 0.0000000000e+00 0.0000e+00 -1.0000e+00
       21 -1    0    0  505  503 -0.0000000000e+00 -0.0000000000e+00 -1.1511890413e+02 1.1511890413e+02 0.0000000000e+00 0.0000e+00 -1.0000e+00
        6  1    1    2  501    0 +2.5576781684e+01 -1.8329734574e+02 +4.2182205608e+02 4.9205176121e+02 1.7300000000e+02 0.0000e+00 -1.0000e+00
       -6  1    1    2    0  502 -7.4743467918e+01 +2.3642944857e+02 +6.5154654322e+02 7.1828084210e+02 1.7300000000e+02 0.0000e+00 1.0000e+00
       21  1    1    2  504  503 +1.2059266637e+01 -3.6762962771e+01 +1.9077498032e+02 1.9465876414e+02 0.0000000000e+00 0.0000e+00 1.0000e+00
       21  1    1    2  505  501 +3.7107419597e+01 -1.6369140064e+01 -3.5494266505e+01 5.3895753918e+01 0.0000000000e+00 0.0000e+00 -1.0000e+00
<mgrwt>
<rscale>  4 0.27478769E+03</rscale>
<asrwt>0</asrwt>
<pdfrwt beam="1">  1       21 0.20673356E+00 0.27478769E+03</pdfrwt>
<pdfrwt beam="2">  1       21 0.17710602E-01 0.27478769E+03</pdfrwt>
<totfact> 0.32850147E+03</totfact>
</mgrwt>
</event>
<event>
 6      1 +2.5168323e+02 2.17157400e+02 7.54677100e-03 1.11910500e-01
       21 -1    0    0  501  502 +0.0000000000e+00 +0.0000000000e+00 +1.3890464002e+03 1.3890464002e+03 0.0000000000e+00 0.0000e+00 1.0000e+00
       21 -1    0    0  504  503 -0.0000000000e+00 -0.0000000000e+00 -2.6291951498e+02 2.6291951498e+02 0.0000000000e+00 0.0000e+00 1.0000e+00
        6  1    1    2  501    0 +3.1472330763e+01 +9.8147481531e+01 +3.8033594729e+02 4.3035783778e+02 1.7300000000e+02 0.0000e+00 1.0000e+00
       -6  1    1    2    0  503 -1.6161622198e+02 -5.0985929072e+01 +9.2309437773e+02 9.5433306469e+02 1.7300000000e+02 0.0000e+00 1.0000e+00
       21  1    1    2  504  505 -3.0876693504e+01 +9.3005784166e-01 -3.8172103983e+01 4.9105445033e+01 0.0000000000e+00 0.0000e+00 1.0000e+00
       21  1    1    2  505  502 +1.6102058473e+02 -4.8091610301e+01 -1.3913133578e+02 2.1816956772e+02 0.0000000000e+00 0.0000e+00 1.0000e+00
<mgrwt>
<rscale>  4 0.21715745E+03</rscale>
<asrwt>0</asrwt>
<pdfrwt beam="1">  1       21 0.21369944E+00 0.21715745E+03</pdfrwt>
<pdfrwt beam="2">  1       21 0.40449157E-01 0.21715745E+03</pdfrwt>
<totfact> 0.62982259E+02</totfact>
</mgrwt>
</event>
<event>
 6      1 +2.5168323e+02 1.80256900e+02 7.54677100e-03 1.16820100e-01
       21 -1    0    0  505  502 +0.0000000000e+00 +0.0000000000e+00 +9.2980085278e+01 9.2980085278e+01 0.0000000000e+00 0.0000e+00 -1.0000e+00
       21 -1    0    0  501  503 -0.0000000000e+00 -0.0000000000e+00 -1.0861363003e+03 1.0861363003e+03 0.0000000000e+00 0.0000e+00 -1.0000e+00
        6  1    1    2  501    0 +6.9461547886e+00 -1.7991264072e+01 -2.8832189565e+02 3.3679437371e+02 1.7300000000e+02 0.0000e+00 1.0000e+00
       -6  1    1    2    0  502 -3.1837615906e+01 +7.3566941702e+01 -5.2736086717e+02 5.6077108780e+02 1.7300000000e+02 0.0000e+00 1.0000e+00
       21  1    1    2  504  503 +1.1768503601e+01 -2.0082981164e+01 -2.2194290685e+02 2.2316020638e+02 0.0000000000e+00 0.0000e+00 -1.0000e+00
       21  1    1    2  505  504 +1.3122957517e+01 -3.5492696465e+01 +4.4469454644e+01 5.8390717693e+01 0.0000000000e+00 0.0000e+00 -1.0000e+00
<mgrwt>
<rscale>  4 0.18025688E+03</rscale>
<asrwt>0</asrwt>
<pdfrwt beam="1">  1       21 0.14304629E-01 0.18025688E+03</pdfrwt>
<pdfrwt beam="2">  1       21 0.16709789E+00 0.18025688E+03</pdfrwt>
<totfact> 0.96614566E+03</totfact>
</mgrwt>
</event>
<event>
 6      1 +2.5168323e+02 3.16235700e+02 7.54677100e-03 1.11634100e-01
       21 -1    0    0  503  502 +0.0000000000e+00 +0.0000000000e+00 +7.7031988699e+02 7.7031988699e+02 0.0000000000e+00 0.0000e+00 -1.0000e+00
       21 -1    0    0  505  503 -0.0000000000e+00 -0.0000000000e+00 -5.3557424878e+02 5.3557424878e+02 0.0000000000e+00 0.0000e+00 1.0000e+00
        6  1    1    2  501    0 +2.2057311263e+02 -1.3530496017e+02 +3.2473941074e+02 4.4982731703e+02 1.7300000000e+02 0.0000e+00 -1.0000e+00
       -6  1    1    2    0  504 -8.6948571581e+01 +2.3463274742e+02 -2.0392844018e+02 3.6623542835e+02 1.7300000000e+02 0.0000e+00 1.0000e+00
       21  1    1    2  504  502 -1.0652877748e+02 -1.2763597448e+02 +2.7648778750e+02 3.2262178948e+02 0.0000000000e+00 0.0000e+00 -1.0000e+00
       21  1    1    2  505  501 -2.7095763569e+01 +2.8308187229e+01 -1.6255311984e+02 1.6720960091e+02 0.0000000000e+00 0.0000e+00 1.0000e+00
<mgrwt>
<rscale>  4 0.31623567E+03</rscale>
<asrwt>0</asrwt>
<pdfrwt beam="1">  1       21 0.11851075E+00 0.31623567E+03</pdfrwt>
<pdfrwt beam="2">  1       21 0.82396038E-01 0.31623567E+03</pdfrwt>
<totfact> 0.63175536E+02</totfact>
</mgrwt>
</event>
<event>
 6      1 +2.5168323e+02 3.56306100e+02 7.54677100e-03 1.16820100e-01
       21 -1    0    0  505  502 +0.0000000000e+00 +0.0000000000e+00 +3.3410566762e+02 3.3410566762e+02 0.0000000000e+00 0.0000e+00 1.0000e+00
       21 -1    0    0  501  503 -0.0000000000e+00 -0.0000000000e+00 -8.6733598320e+02 8.6733598320e+02 0.0000000000e+00 0.0000e+00 -1.0000e+00
        6  1    1    2  501    0 -2.9770167482e+02 +5.5630247779e+01 -2.1689861892e+02 4.1072499625e+02 1.7300000000e+02 0.0000e+00 1.0000e+00
       -6  1    1    2    0  502 +3.0355648342e+02 -2.2015338470e+01 -3.1571302639e+00 3.5010024454e+02 1.7300000000e+02 0.0000e+00 1.0000e+00
       21  1    1    2  504  503 -3.6623119590e+01 -1.4058243980e+00 -3.6808826072e+02 3.6990836285e+02 0.0000000000e+00 0.0000e+00 -1.0000e+00
       21  1    1    2  505  504 +3.0768310995e+01 -3.2209084911e+01 +5.4913694311e+01 7.0708047174e+01 0.0000000000e+00 0.0000e+00 -1.0000e+00
<mgrwt>
<rscale>  4 0.35630607E+03</rscale>
<asrwt>0</asrwt>
<pdfrwt beam="1">  1       21 0.51400872E-01 0.35630607E+03</pdfrwt>
<pdfrwt beam="2">  1       21 0.13343630E+00 0.35630607E+03</pdfrwt>
<totfact> 0.12933163E+03</totfact>
</mgrwt>
</event>
<event>
 6      1 +2.5168323e+02 2.15071400e+02 7.54677100e-03 1.11634100e-01
       21 -1    0    0  503  502 +0.0000000000e+00 +0.0000000000e+00 +1.8249488560e+02 1.8249488560e+02 0.0000000000e+00 0.0000e+00 1.0000e+00
       21 -1    0    0  505  503 -0.0000000000e+00 -0.0000000000e+00 -8.5123729590e+02 8.5123729590e+02 0.0000000000e+00 0.0000e+00 1.0000e+00
        6  1    1    2  501    0 +1.0440052784e+02 -2.1606135963e+01 -1.9119897844e+01 2.0410993562e+02 1.7300000000e+02 0.0000e+00 1.0000e+00
       -6  1    1    2    0  504 -1.1741892526e+02 +6.8354034134e+01 -2.0997734424e+02 3.0410354007e+02 1.7300000000e+02 0.0000e+00 1.0000e+00
       21  1    1    2  504  502 +3.5152526064e+01 -2.0960698803e+01 +3.2432196295e+01 5.2219712174e+01 0.0000000000e+00 0.0000e+00 1.0000e+00
       21  1    1    2  505  501 -2.2134128647e+01 -2.5787199368e+01 -4.7207736450e+02 4.7329899364e+02 0.0000000000e+00 0.0000e+00 1.0000e+00
<mgrwt>
<rscale>  4 0.21507143E+03</rscale>
<asrwt>0</asrwt>
<pdfrwt beam="1">  1       21 0.28076136E-01 0.21507143E+03</pdfrwt>
<pdfrwt beam="2">  1       21 0.13095958E+00 0.21507143E+03</pdfrwt>
<totfact> 0.50514658E+03</totfact>
</mgrwt>
</event>
<event>
 6      1 +2.5168323e+02 1.90837900e+02 7.54677100e-03 1.16871900e-01
       21 -1    0    0  505  502 +0.0000000000e+00 +0.0000000000e+00 +9.9220562432e+02 9.9220562432e+02 0.0000000000e+00 0.0000e+00 -1.0000e+00
       21 -1    0    0  502  503 -0.0000000000e+00 -0.0000000000e+00 -5.7327404108e+01 5.7327404108e+01 0.0000000000e+00 0.0000e+00 -1.0000e+00
        6  1    1    2  501    0 -3.6619226774e+01 -9.4381392401e+01 +3.1289611121e+02 3.7159358365e+02 1.7300000000e+02 0.0000e+00 1.0000e+00
       -6  1    1    2    0  503 +4.9152865275e+01 +4.1886054961e+01 +3.1943624740e+02 3.6897013689e+02 1.7300000000e+02 0.0000e+00 -1.0000e+00
       21  1    1    2  504  501 -1.7782778912e+01 +1.1144001054e+01 +9.9520781811e+01 1.0170939975e+02 0.0000000000e+00 0.0000e+00 -1.0000e+00
       21  1    1    2  505  504 +5.2491404121e+00 +4.1351336386e+01 +2.0302507979e+02 2.0725990814e+02 0.0000000000e+00 0.0000e+00 -1.0000e+00
<mgrwt>
<rscale>  4 0.19083787E+03</rscale>
<asrwt>0</asrwt>
<pdfrwt beam="1">  1       21 0.15264701E+00 0.19083787E+03</pdfrwt>
<pdfrwt beam="2">  1       21 0.88196014E-02 0.19083787E+03</pdfrwt>
<totfact> 0.28921376E+04</totfact>
</mgrwt>
</event>
<event>
 6      1 +2.5168323e+02 2.16793700e+02 7.54677100e-03 1.11634100e-01
       21 -1    0    0  503  502 +0.0000000000e+00 +0.0000000000e+00 +1.7759827320e+02 1.7759827320e+02 0.0000000000e+00 0.0000e+00 1.0000e+00
       21 -1    0    0  505  503 -0.0000000000e+00 -0.0000000000e+00 -2.5425597553e+03 2.5425597553e+03 0.0000000000e+00 0.0000e+00 1.0000e+00
        6  1    1    2  501    0 +6.5196141237e+01 -1.1976479390e+02 -1.0063529143e+03 1.0301792712e+03 1.7300000000e+02 0.0000e+00 1.0000e+00
       -6  1    1    2    0  504 -7.4226983501e+01 +1.0520714227e+02 -8.5234255342e+02 8.7920135136e+02 1.7300000000e+02 0.0000e+00 -1.0000e+00
       21  1    1    2  504  502 -1.2547149597e+01 -2.5028710745e+01 +1.5018883016e+02 1.5277615006e+02 0.0000000000e+00 0.0000e+00 1.0000e+00
       21  1    1    2  505  501 +2.1577991862e+01 +3.9586362374e+01 -6.5645484458e+02 6.5800125592e+02 0.0000000000e+00 0.0000e+00 1.0000e+00
<mgrwt>
<rscale>  4 0.21679372E+03</rscale>
<asrwt>0</asrwt>
<pdfrwt beam="1">  1       21 0.27322812E-01 0.21679372E+03</pdfrwt>
<pdfrwt beam="2">  1       21 0.39116303E+00 0.21679372E+03</pdfrwt>
<totfact> 0.12117789E+02</totfact>
</mgrwt>
</event>
<event>
 6      1 +2.5168323e+02 2.05221600e+02 7.54677100e-03 1.11634100e-01
       21 -1    0    0  503  502 +0.0000000000e+00 +0.0000000000e+00 +3.9702543523e+02 3.9702543523e+02 0.0000000000e+00 0.0000e+00 1.0000e+00
       21 -1    0    0  505  503 -0.0000000000e+00 -0.0000000000e+00 -2.6228359925e+02 2.6228359925e+02 0.0000000000e+00 0.0000e+00 -1.0000e+00
        6  1    1    2  501    0 +9.0534945266e+01 -1.3391810254e+02 +7.6713283321e+01 2.4888664556e+02 1.7300000000e+02 0.0000e+00 1.0000e+00
       -6  1    1    2    0  504 -8.7356595278e+01 +2.5818203041e+01 +1.7487244977e+00 1.9552445470e+02 1.7300000000e+02 0.0000e+00 1.0000e+00
       21  1    1    2  504  502 +6.5712268129e+00 +1.2604414199e+02 +1.0364522296e+02 1.6331760161e+02 0.0000000000e+00 0.0000e+00 1.0000e+00
       21  1    1    2  505  501 -9.7495768010e+00 -1.7944242492e+01 -4.7365394808e+01 5.1580332606e+01 0.0000000000e+00 0.0000e+00 -1.0000e+00
<mgrwt>
<rscale>  4 0.20522165E+03</rscale>
<asrwt>0</asrwt>
<pdfrwt beam="1">  1       21 0.61080837E-01 0.20522165E+03</pdfrwt>
<pdfrwt beam="2">  1       21 0.40351323E-01 0.20522165E+03</pdfrwt>
<totfact> 0.14638963E+04</totfact>
</mgrwt>
</event>
<event>
 6      1 +2.5168323e+02 2.11693000e+02 7.54677100e-03 1.17389200e-01
       21 -1    0    0  504  502 +0.0000000000e+00 +0.0000000000e+00 +2.5945354293e+02 2.5945354293e+02 0.0000000000e+00 0.0000e+00 -1.0000e+00
       21 -1    0    0  501  503 -0.0000000000e+00 -0.0000000000e+00 -3.5973766435e+02 3.5973766435e+02 0.0000000000e+00 0.0000e+00 -1.0000e+00
        6  1    1    2  501    0 +1.0388784970e+02 -1.0013138497e+02 +5.9642432072e+01 2.3303475980e+02 1.7300000000e+02 0.0000e+00 -1.0000e+00
       -6  1    1    2    0  502 +1.9864271969e+01 +1.1929671329e+02 -7.3341454803e+01 2.2345975945e+02 1.7300000000e+02 0.0000e+00 -1.0000e+00
       21  1    1    2  504  505 -1.0418496783e+02 +4.1681241832e+00 -5.1673601243e+01 1.1637027905e+02 0.0000000000e+00 0.0000e+00 -1.0000e+00
       21  1    1    2  505  503 -1.9567153843e+01 -2.3333452502e+01 -3.4911497442e+01 4.6326408978e+01 0.0000000000e+00 0.0000e+00 -1.0000e+00
<mgrwt>
<rscale>  4 0.21169297E+03</rscale>
<asrwt>0</asrwt>
<pdfrwt beam="1">  1       21 0.39915930E-01 0.21169297E+03</pdfrwt>
<pdfrwt beam="2">  1       21 0.55344256E-01 0.21169297E+03</pdfrwt>
<totfact> 0.18408396E+04</totfact>
</mgrwt>
</event>
<event>
 6      1 +2.5168323e+02 1.87209700e+02 7.54677100e-03 1.11910500e-01
       21 -1    0    0  501  502 +0.0000000000e+00 +0.0000000000e+00 +2.6393308278e+02 2.6393308278e+02 0.0000000000e+00 0.0000e+00 1.0000e+00
       21 -1    0    0  504  503 -0.0000000000e+00 -0.0000000000e+00 -7.3465666389e+02 7.3465666389e+02 0.0000000000e+00 0.0000e+00 1.0000e+00
        6  1    1    2  501    0 +3.9025005971e+01 -9.5534658531e+01 +1.1721869824e+02 2.3306446595e+02 1.7300000000e+02 0.0000e+00 1.0000e+00
       -6  1    1    2    0  503 -4.9476780207e+01 -1.2037365230e+01 -2.8230009205e+01 1.8253433475e+02 1.7300000000e+02 0.0000e+00 -1.0000e+00
       21  1    1    2  504  505 +2.2712644107e+01 +1.4948957330e+01 -1.6506728343e+01 3.1808923405e+01 0.0000000000e+00 0.0000e+00 1.0000e+00
       21  1    1    2  505  502 -1.2260869871e+01 +9.2623066431e+01 -5.4320554180e+02 5.5118202257e+02 0.0000000000e+00 0.0000e+00 1.0000e+00
<mgrwt>
<rscale>  4 0.18720972E+03</rscale>
<asrwt>0</asrwt>
<pdfrwt beam="1">  1       21 0.40605090E-01 0.18720972E+03</pdfrwt>
<pdfrwt beam="2">  1       21 0.11302410E+00 0.18720972E+03</pdfrwt>
<totfact> 0.35899690E+03</totfact>
</mgrwt>
</event>
<event>
 6      1 +2.5168323e+02 2.78792500e+02 7.54677100e-03 1.08788200e-01
       21 -1    0    0  501  502 +0.0000000000e+00 +0.0000000000e+00 +2.0083349938e+03 2.0083349938e+03 0.0000000000e+00 0.0000e+00 1.0000e+00
       21 -1    0    0  502  503 -0.0000000000e+00 -0.0000000000e+00 -2.8731971677e+02 2.8731971677e+02 0.0000000000e+00 0.0000e+00 -1.0000e+00
        6  1    1    2  501    0 -6.6555663889e+01 +2.1103395660e+02 +1.8067340741e+03 1.8284370380e+03 1.7300000000e+02 0.0000e+00 1.0000e+00
       -6  1    1    2    0  505 +1.1456344834e+02 -1.6386793721e+02 +4.6677243908e+01 2.6848696363e+02 1.7300000000e+02 0.0000e+00 -1.0000e+00
       21  1    1    2  504  503 -1.5625292655e+01 -7.5746796085e+01 -1.3486600930e+02 1.5546886297e+02 0.0000000000e+00 0.0000e+00 -1.0000e+00
       21  1    1    2  505  504 -3.2382491798e+01 +2.8580776694e+01 +2.4699682515e+00 4.3261845946e+01 0.0000000000e+00 0.0000e+00 -1.0000e+00
<mgrwt>
<rscale>  4 0.27879254E+03</rscale>
<asrwt>0</asrwt>
<pdfrwt beam="1">  1       21 0.30897461E+00 0.27879254E+03</pdfrwt>
<pdfrwt beam="2">  1       21 0.44203035E-01 0.27879254E+03</pdfrwt>
<totfact> 0.13274738E+02</totfact>
</mgrwt>
</event>
<event>
 6      1 +2.5168323e+02 2.26196100e+02 7.54677100e-03 1.07279400e-01
       21 -1    0    0  504  502 +0.0000000000e+00 +0.0000000000e+00 +7.3234260427e+01 7.3234260427e+01 0.0000000000e+00 0.0000e+00 -1.0000e+00
       21 -1    0    0  505  503 -0.0000000000e+00 -0.0000000000e+00 -1.2369650040e+03 1.2369650040e+03 0.0000000000e+00 0.0000e+00 -1.0000e+00
        6  1    1    2  501    0 -1.1805495956e+02 -8.2223639313e+00 -2.9708404960e+02 3.6358288363e+02 1.7300000000e+02 0.0000e+00 -1.0000e+00
       -6  1    1    2    0  503 +1.5668989322e+02 +3.1233405368e+01 -8.1691014869e+02 8.5017553440e+02 1.7300000000e+02 0.0000e+00 -1.0000e+00
       21  1    1    2  504  501 -1.2813435580e+01 -4.3437331358e+01 -1.3014883275e+01 4.7120834814e+01 0.0000000000e+00 0.0000e+00 -1.0000e+00
       21  1    1    2  505  502 -2.5821498079e+01 +2.0426289921e+01 -3.6721662038e+01 4.9320011616e+01 0.0000000000e+00 0.0000e+00 1.0000e+00
<mgrwt>
<rscale>  4 0.22619613E+03</rscale>
<asrwt>0</asrwt>
<pdfrwt beam="1">  1       21 0.11266809E-01 0.22619613E+03</pdfrwt>
<pdfrwt beam="2">  1       21 0.19030232E+00 0.22619613E+03</pdfrwt>
<totfact> 0.99315341E+03</totfact>
</mgrwt>
</event>
<event>
 6      1 +2.5168323e+02 1.79532300e+02 7.54677100e-03 1.17389200e-01
       21 -1    0    0  504  502 +0.0000000000e+00 +0.0000000000e+00 +1.1257819845e+03 1.1257819845e+03 0.0000000000e+00 0.0000e+00 -1.0000e+00
       21 -1    0    0  501  503 -0.0000000000e+00 -0.0000000000e+00 -4.6542496284e+01 4.6542496284e+01 0.0000000000e+00 0.0000e+00 -1.0000e+00
        6  1    1    2  501    0 +4.6880326895e+01 +4.0390283508e+01 +5.5818409214e+02 5.8764582936e+02 1.7300000000e+02 0.0000e+00 -1.0000e+00
       -6  1    1    2    0  505 +2.6409131559e+01 -5.1321608782e+01 +3.6427726093e+02 4.0737976458e+02 1.7300000000e+02 0.0000e+00 -1.0000e+00
       21  1    1    2  504  503 -5.6555505386e+01 -8.1448166472e+00 +1.1512542821e+02 1.2852520161e+02 0.0000000000e+00 0.0000e+00 -1.0000e+00
       21  1    1    2  505  502 -1.6733953068e+01 +1.9076141921e+01 +4.1652706919e+01 4.8773685216e+01 0.0000000000e+00 0.0000e+00 -1.0000e+00
<mgrwt>
<rscale>  4 0.17953226E+03</rscale>
<asrwt>0</asrwt>
<pdfrwt beam="1">  1       21 0.17319721E+00 0.17953226E+03</pdfrwt>
<pdfrwt beam="2">  1       21 0.71603849E-02 0.17953226E+03</pdfrwt>
<totfact> 0.29741520E+04</totfact>
</mgrwt>
</event>
<event>
 6      1 +2.5168323e+02 2.11570000e+02 7.54677100e-03 1.16820100e-01
       21 -1    0    0  504  502 +0.0000000000e+00 +0.0000000000e+00 +6.7455852750e+02 6.7455852750e+02 0.0000000000e+00 0.0000e+00 1.0000e+00
       21 -1    0    0  501  503 -0.0000000000e+00 -0.0000000000e+00 -9.8849218722e+01 9.8849218722e+01 0.0000000000e+00 0.0000e+00 1.0000e+00
        6  1    1    2  501    0 +2.2134221784e+01 -1.0800679530e+02 +3.1250794722e+02 3.7382563941e+02 1.7300000000e+02 0.0000e+00 1.0000e+00
       -6  1    1    2    0  505 +2.8846866583e+01 +1.3414780408e+02 +1.4432363557e+02 2.6379174899e+02 1.7300000000e+02 0.0000e+00 1.0000e+00
       21  1    1    2  504  503 -1.8517384712e+01 -9.8825138205e+00 +1.5133304477e+01 2.5876138050e+01 0.0000000000e+00 0.0000e+00 1.0000e+00
       21  1    1    2  505  502 -3.2463703655e+01 -1.6258494951e+01 +1.0374442151e+02 1.0991421977e+02 0.0000000000e+00 0.0000e+00 1.0000e+00
<mgrwt>
<rscale>  4 0.21156996E+03</rscale>
<asrwt>0</asrwt>
<pdfrwt beam="1">  1       21 0.10377823E+00 0.21156996E+03</pdfrwt>
<pdfrwt beam="2">  1       21 0.15207573E-01 0.21156996E+03</pdfrwt>
<totfact> 0.28436916E+04</totfact>
</mgrwt>
</event>
<event>
 6      1 +2.5168323e+02 2.37571400e+02 7.54677100e-03 1.16820100e-01
       21 -1    0    0  505  502 +0.0000000000e+00 +0.0000000000e+00 +7.4790851670e+02 7.4790851670e+02 0.0000000000e+00 0.0000e+00 -1.0000e+00
       21 -1    0    0  501  503 -0.0000000000e+00 -0.0000000000e+00 -3.1593434640e+02 3.1593434640e+02 0.0000000000e+00 0.0000e+00 -1.0000e+00
        6  1    1    2  501    0 +5.5550240848e+01 -1.8393016643e+02 -5.4445075175e+01 2.6421468845e+02 1.7300000000e+02 0.0000e+00 -1.0000e+00
       -6  1    1    2    0  502 +4.7851753468e+00 +1.4203164851e+02 +2.0621491578e+02 3.0438376858e+02 1.7300000000e+02 0.0000e+00 -1.0000e+00
       21  1    1    2  504  503 +1.6618861939e+01 +3.4962792852e+01 -1.0001930989e+02 1.0724945598e+02 0.0000000000e+00 0.0000e+00 -1.0000e+00
       21  1    1    2  505  504 -7.6954278134e+01 +6.9357250585e+00 +3.8022363958e+02 3.8799495010e+02 0.0000000000e+00 0.0000e+00 -1.0000e+00
<mgrwt>
<rscale>  4 0.23757145E+03</rscale>
<asrwt>0</asrwt>
<pdfrwt beam="1">  1       21 0.11506285E+00 0.23757145E+03</pdfrwt>
<pdfrwt beam="2">  1       21 0.48605284E-01 0.23757145E+03</pdfrwt>
<totfact> 0.22791275E+03</totfact>
</mgrwt>
</event>
<event>
 6      1 +2.5168323e+02 2.36793000e+02 7.54677100e-03 1.14278100e-01
       21 -1    0    0  504  502 +0.0000000000e+00 +0.0000000000e+00 +1.0504927945e+03 1.0504927945e+03 0.0000000000e+00 0.0000e+00 1.0000e+00
       21 -1    0    0  502  503 -0.0000000000e+00 -0.0000000000e+00 -3.2685593623e+02 3.2685593623e+02 0.0000000000e+00 0.0000e+00 1.0000e+00
        6  1    1    2  501    0 -1.1756551312e+02 +9.3063161403e+01 -9.4672436612e+01 2.4773831383e+02 1.7300000000e+02 0.0000e+00 1.0000e+00
       -6  1    1    2    0  505 +1.5132561977e+02 -1.2229307613e+02 +1.3513271197e+02 2.9333409197e+02 1.7300000000e+02 0.0000e+00 1.0000e+00
       21  1    1    2  504  501 +8.8383666313e+01 -7.6293547309e+01 +6.6346901065e+02 6.7366423827e+02 0.0000000000e+00 0.0000e+00 1.0000e+00
       21  1    1    2  505  503 -1.2214377296e+02 +1.0552346204e+02 +1.9707572221e+01 1.6261208662e+02 0.0000000000e+00 0.0000e+00 1.0000e+00
<mgrwt>
<rscale>  4 0.23679300E+03</rscale>
<asrwt>0</asrwt>
<pdfrwt beam="1">  1       21 0.16161427E+00 0.23679300E+03</pdfrwt>
<pdfrwt beam="2">  1       21 0.50285529E-01 0.23679300E+03</pdfrwt>
<totfact> 0.88284395E+02</totfact>
</mgrwt>
</event>
<event>
 6      1 +2.5168323e+02 4.10793100e+02 7.54677100e-03 1.16820100e-01
       21 -1    0    0  505  502 +0.0000000000e+00 +0.0000000000e+00 +3.7423109650e+02 3.7423109650e+02 0.0000000000e+00 0.0000e+00 1.0000e+00
       21 -1    0    0  501  503 -0.0000000000e+00 -0.0000000000e+00 -1.1767079570e+03 1.1767079570e+03 0.0000000000e+00 0.0000e+00 -1.0000e+00
        6  1    1    2  501    0 +1.1816125450e+02 +2.6898698988e+02 -4.1370135653e+02 5.3609131235e+02 1.7300000000e+02 0.0000e+00 -1.0000e+00
       -6  1    1    2    0  502 -1.2638296712e+02 -4.3030810107e+02 -4.9429720553e+01 4.8322873828e+02 1.7300000000e+02 0.0000e+00 1.0000e+00
       21  1    1    2  504  503 +9.2165595304e+00 +9.8753599209e+01 -4.1885564630e+02 4.3043846339e+02 0.0000000000e+00 0.0000e+00 -1.0000e+00
       21  1    1    2  505  504 -9.9484691807e-01 +6.2567511982e+01 +7.9509862881e+01 1.0118053949e+02 0.0000000000e+00 0.0000e+00 -1.0000e+00
<mgrwt>
<rscale>  4 0.41079306E+03</rscale>
<asrwt>0</asrwt>
<pdfrwt beam="1">  1       21 0.57574016E-01 0.41079306E+03</pdfrwt>
<pdfrwt beam="2">  1       21 0.18103199E+00 0.41079306E+03</pdfrwt>
<totfact> 0.42625711E+02</totfact>
</mgrwt>
</event>
<event>
 6      1 +2.5168323e+02 2.40224700e+02 7.54677100e-03 1.16820100e-01
       21 -1    0    0  505  502 +0.0000000000e+00 +0.0000000000e+00 +1.5427478667e+03 1.5427478667e+03 0.0000000000e+00 0.0000e+00 -1.0000e+00
       21 -1    0    0  501  503 -0.0000000000e+00 -0.0000000000e+00 -1.8319306474e+02 1.8319306474e+02 0.0000000000e+00 0.0000e+00 -1.0000e+00
        6  1    1    2  501    0 +7.9672368385e+01 +1.2675115558e+02 +1.6571514368e+01 2.2938429940e+02 1.7300000000e+02 0.0000e+00 -1.0000e+00
       -6  1    1    2    0  502 +2.8097618318e+01 -2.8892645738e+02 +1.0052577417e+03 1.0605376472e+03 1.7300000000e+02 0.0000e+00 -1.0000e+00
       21  1    1    2  504  503 -1.8981034031e+01 +1.9364637677e+01 -2.4574532731e+01 3.6594760612e+01 0.0000000000e+00 0.0000e+00 -1.0000e+00
       21  1    1    2  505  504 -8.8788952671e+01 +1.4281066412e+02 +3.6230007867e+02 3.9942422423e+02 0.0000000000e+00 0.0000e+00 -1.0000e+00
<mgrwt>
<rscale>  4 0.24022469E+03</rscale>
<asrwt>0</asrwt>
<pdfrwt beam="1">  1       21 0.23734582E+00 0.24022469E+03</pdfrwt>
<pdfrwt beam="2">  1       21 0.28183549E-01 0.24022469E+03</pdfrwt>
<totfact> 0.90191558E+02</totfact>
</mgrwt>
</event>
<event>
 6      1 +2.5168323e+02 1.92285100e+02 7.54677100e-03 1.07279400e-01
       21 -1    0    0  505  502 +0.0000000000e+00 +0.0000000000e+00 +6.7412608218e+02 6.7412608218e+02 0.0000000000e+00 0.0000e+00 1.0000e+00
       21 -1    0    0  501  503 -0.0000000000e+00 -0.0000000000e+00 -3.8199086763e+02 3.8199086763e+02 0.0000000000e+00 0.0000e+00 1.0000e+00
        6  1    1    2  501    0 -8.7345966062e+00 +6.2449360224e+01 -1.2626966114e+02 2.2326944058e+02 1.7300000000e+02 0.0000e+00 1.0000e+00
       -6  1    1    2    0  504 +7.3687267321e+00 -1.0759381924e+02 -1.3253332319e+02 2.4315593726e+02 1.7300000000e+02 0.0000e+00 1.0000e+00
       21  1    1    2  504  502 -2.9156413522e+01 +1.2448557376e+01 +5.4341006390e+02 5.4433405238e+02 0.0000000000e+00 0.0000e+00 1.0000e+00
       21  1    1    2  505  503 +3.0522283396e+01 +3.2695901641e+01 +7.5281349739e+00 4.5357519597e+01 0.0000000000e+00 0.0000e+00 -1.0000e+00
<mgrwt>
<rscale>  4 0.19228514E+03</rscale>
<asrwt>0</asrwt>
<pdfrwt beam="1">  1       21 0.10371170E+00 0.19228514E+03</pdfrwt>
<pdfrwt beam="2">  1       21 0.58767826E-01 0.19228514E+03</pdfrwt>
<totfact> 0.20395484E+03</totfact>
</mgrwt>
</event>
<event>
 6      1 +2.5168323e+02 1.94765700e+02 7.54677100e-03 1.11476600e-01
       21 -1    0    0  505  502 +0.0000000000e+00 +0.0000000000e+00 +7.2174420015e+02 7.2174420015e+02 0.0000000000e+00 0.0000e+00 -1.0000e+00
       21 -1    0    0  504  503 -0.0000000000e+00 -0.0000000000e+00 -4.1711931295e+02 4.1711931295e+02 0.0000000000e+00 0.0000e+00 -1.0000e+00
        6  1    1    2  501    0 +7.5428886131e+01 +3.0651555178e+01 -4.6307161699e+01 1.9672922488e+02 1.7300000000e+02 0.0000e+00 -1.0000e+00
       -6  1    1    2    0  502 -9.0676349706e+01 +1.3969100765e+01 +6.2655164824e+02 6.5643987089e+02 1.7300000000e+02 0.0000e+00 -1.0000e+00
       21  1    1    2  504  501 -1.5071703103e+01 -3.7590249702e+01 -1.9737113326e+02 2.0148336743e+02 0.0000000000e+00 0.0000e+00 -1.0000e+00
       21  1    1    2  505  503 +3.0319166678e+01 -7.0304062403e+00 -7.8248466082e+01 8.4211049893e+01 0.0000000000e+00 0.0000e+00 -1.0000e+00
<mgrwt>
<rscale>  4 0.19476567E+03</rscale>
<asrwt>0</asrwt>
<pdfrwt beam="1">  1       21 0.11103757E+00 0.19476567E+03</pdfrwt>
<pdfrwt beam="2">  1       21 0.64172202E-01 0.19476567E+03</pdfrwt>
<totfact> 0.14278927E+03</totfact>
</mgrwt>
</event>
<event>
 6      1 +2.5168323e+02 2.02703800e+02 7.54677100e-03 1.09588500e-01
       21 -1    0    0  505  502 +0.0000000000e+00 +0.0000000000e+00 +2.9053866184e+02 2.9053866184e+02 0.0000000000e+00 0.0000e+00 1.0000e+00
       21 -1    0    0  502  503 -0.0000000000e+00 -0.0000000000e+00 -6.8424574500e+02 6.8424574500e+02 0.0000000000e+00 0.0000e+00 -1.0000e+00
        6  1    1    2  501    0 +1.3925206648e+02 +1.9633489757e+01 -2.1177404419e+02 3.0749611011e+02 1.7300000000e+02 0.0000e+00 -1.0000e+00
       -6  1    1    2    0  504 -8.5443114775e+01 +6.1417779401e+01 +1.9049289929e+02 2.7800937785e+02 1.7300000000e+02 0.0000e+00 1.0000e+00
       21  1    1    2  504  503 -3.5971735308e+01 -6.1652749369e+01 -1.5968926351e+02 1.7491623174e+02 0.0000000000e+00 0.0000e+00 -1.0000e+00
       21  1    1    2  505  501 -1.7837216395e+01 -1.9398519790e+01 -2.1273667475e+02 2.1436268715e+02 0.0000000000e+00 0.0000e+00 -1.0000e+00
<mgrwt>
<rscale>  4 0.20270380E+03</rscale>
<asrwt>0</asrwt>
<pdfrwt beam="1">  1       21 0.44698256E-01 0.20270380E+03</pdfrwt>
<pdfrwt beam="2">  1       21 0.10526857E+00 0.20270380E+03</pdfrwt>
<totfact> 0.34594766E+03</totfact>
</mgrwt>
</event>
<event>
 6      1 +2.5168323e+02 2.31942200e+02 7.54677100e-03 1.11634100e-01
       21 -1    0    0  504  502 +0.0000000000e+00 +0.0000000000e+00 +2.0850890778e+03 2.0850890778e+03 0.0000000000e+00 0.0000e+00 -1.0000e+00
       21 -1    0    0  505  503 -0.0000000000e+00 -0.0000000000e+00 -9.5468734596e+01 9.5468734596e+01 0.0000000000e+00 0.0000e+00 -1.0000e+00
        6  1    1    2  501    0 +1.5890361912e+02 +3.6322580142e+01 +6.0765008505e+02 6.5248549092e+02 1.7300000000e+02 0.0000e+00 -1.0000e+00
       -6  1    1    2    0  502 -1.1650945177e+02 -1.0160584501e+02 +5.0758937739e+02 5.5809871540e+02 1.7300000000e+02 0.0000e+00 -1.0000e+00
       21  1    1    2  504  503 +3.9599689221e+00 +8.4937380472e+01 +9.0635201231e+02 9.1033181323e+02 0.0000000000e+00 0.0000e+00 -1.0000e+00
       21  1    1    2  505  501 -4.6354136275e+01 -1.9654115601e+01 -3.1971131503e+01 5.9641792893e+01 0.0000000000e+00 0.0000e+00 -1.0000e+00
<mgrwt>
<rscale>  4 0.23194219E+03</rscale>
<asrwt>0</asrwt>
<pdfrwt beam="1">  1       21 0.32078290E+00 0.23194219E+03</pdfrwt>
<pdfrwt beam="2">  1       21 0.14687499E-01 0.23194219E+03</pdfrwt>
<totfact> 0.10036056E+03</totfact>
</mgrwt>
</event>
<event>
 6      1 +2.5168323e+02 3.33119500e+02 7.54677100e-03 1.07852700e-01
       21 -1    0    0  505  502 +0.0000000000e+00 +0.0000000000e+00 +7.1437882841e+02 7.1437882841e+02 0.0000000000e+00 0.0000e+00 -1.0000e+00
       21 -1    0    0  502  503 -0.0000000000e+00 -0.0000000000e+00 -3.8341884754e+02 3.8341884754e+02 0.0000000000e+00 0.0000e+00 1.0000e+00
        6  1    1    2  501    0 -1.6242017512e+02 -1.8923898552e+02 +2.1170680748e+02 3.7005469766e+02 1.7300000000e+02 0.0000e+00 -1.0000e+00
       -6  1    1    2    0  503 +1.8596398460e+02 +2.8908246741e+02 -1.3197252772e+02 4.0681325519e+02 1.7300000000e+02 0.0000e+00 1.0000e+00
       21  1    1    2  504  501 -9.9367641344e+00 -7.1990757990e+01 +5.0917947896e+00 7.2851457718e+01 0.0000000000e+00 0.0000e+00 1.0000e+00
       21  1    1    2  505  504 -1.3607045340e+01 -2.7852723897e+01 +2.4613390632e+02 2.4807826538e+02 0.0000000000e+00 0.0000e+00 -1.0000e+00
<mgrwt>
<rscale>  4 0.33311949E+03</rscale>
<asrwt>0</asrwt>
<pdfrwt beam="1">  1       21 0.10990444E+00 0.33311949E+03</pdfrwt>
<pdfrwt beam="2">  1       21 0.58987515E-01 0.33311949E+03</pdfrwt>
<totfact> 0.15902840E+03</totfact>
</mgrwt>
</event>
<event>
 6      1 +2.5168323e+02 1.98564800e+02 7.54677100e-03 1.11476600e-01
       21 -1    0    0  503  502 +0.0000000000e+00 +0.0000000000e+00 +2.7958734811e+02 2.7958734811e+02 0.0000000000e+00 0.0000e+00 1.0000e+00
       21 -1    0    0  505  503 -0.0000000000e+00 -0.0000000000e+00 -4.7352659000e+02 4.7352659000e+02 0.0000000000e+00 0.0000e+00 1.0000e+00
        6  1    1    2  501    0 +1.0826944160e+02 -1.0614140677e+02 -2.4656865057e+02 3.3721413028e+02 1.7300000000e+02 0.0000e+00 1.0000e+00
       -6  1    1    2    0  502 -8.0843437131e+01 +4.0534033399e+01 +1.8187257379e+02 2.6680573886e+02 1.7300000000e+02 0.0000e+00 1.0000e+00
       21  1    1    2  504  501 -1.6955150638e+01 +4.4443699874e+01 -6.4233734432e+01 7.9929295197e+01 0.0000000000e+00 0.0000e+00 -1.0000e+00
       21  1    1    2  505  504 -1.0470853831e+01 +2.1163673497e+01 -6.5009430669e+01 6.9164773778e+01 0.0000000000e+00 0.0000e+00 -1.0000e+00
<mgrwt>
<rscale>  4 0.19856478E+03</rscale>
<asrwt>0</asrwt>
<pdfrwt beam="1">  1       21 0.43013438E-01 0.19856478E+03</pdfrwt>
<pdfrwt beam="2">  1       21 0.72850244E-01 0.19856478E+03</pdfrwt>
<totfact> 0.87796130E+03</totfact>
</mgrwt>
</event>
<event>
 6      1 +2.5168323e+02 3.09583600e+02 7.54677100e-03 1.10585500e-01
       21 -1    0    0  504  502 +0.0000000000e+00 +0.0000000000e+00 +2.1325573675e+02 2.1325573675e+02 0.0000000000e+00 0.0000e+00 1.0000e+00
       21 -1    0    0  502  503 -0.0000000000e+00 -0.0000000000e+00 -2.2723690618e+03 2.2723690618e+03 0.0000000000e+00 0.0000e+00 1.0000e+00
        6  1    1    2  501    0 +1.2946391033e+02 -1.8068997273e+02 -6.4340341022e+01 2.8892637437e+02 1.7300000000e+02 0.0000e+00 1.0000e+00
       -6  1    1    2    0  505 -8.7972736718e+01 +3.4183107492e+02 -3.2736864512e+02 5.1155343415e+02 1.7300000000e+02 0.0000e+00 1.0000e+00
       21  1    1    2  504  501 -5.3164786614e+01 -1.2149708577e+02 -5.0867442290e+02 5.2567832835e+02 0.0000000000e+00 0.0000e+00 1.0000e+00
       21  1    1    2  505  503 +1.1673612999e+01 -3.9644016420e+01 -1.1587299160e+03 1.1594666617e+03 0.0000000000e+00 0.0000e+00 1.0000e+00
<mgrwt>
<rscale>  4 0.30958360E+03</rscale>
<asrwt>0</asrwt>
<pdfrwt beam="1">  1       21 0.32808574E-01 0.30958360E+03</pdfrwt>
<pdfrwt beam="2">  1       21 0.34959525E+00 0.30958360E+03</pdfrwt>
<totfact> 0.13488270E+02</totfact>
</mgrwt>
</event>
<event>
 6      1 +2.5168323e+02 1.73944500e+02 7.54677100e-03 1.09588500e-01
       21 -1    0    0  505  502 +0.0000000000e+00 +0.0000000000e+00 +1.1212084389e+03 1.1212084389e+03 0.0000000000e+00 0.0000e+00 -1.0000e+00
       21 -1    0    0  502  503 -0.0000000000e+00 -0.0000000000e+00 -8.3226839946e+02 8.3226839946e+02 0.0000000000e+00 0.0000e+00 1.0000e+00
        6  1    1    2  501    0 +7.9077911343e+00 +2.7898715285e+01 +8.6576495303e+02 8.8335656751e+02 1.7300000000e+02 0.0000e+00 -1.0000e+00
       -6  1    1    2    0  504 +3.7849814093e+01 +2.1598011210e+01 +1.8887545263e+02 2.5981150690e+02 1.7300000000e+02 0.0000e+00 1.0000e+00
       21  1    1    2  504  503 -3.7950083276e+01 +1.1717110297e+01 +2.3463187176e+00 3.9786991667e+01 0.0000000000e+00 0.0000e+00 1.0000e+00
       21  1    1    2  505  501 -7.8075219505e+00 -6.1213836791e+01 -7.6804668497e+02 7.7052177224e+02 0.0000000000e+00 0.0000e+00 1.0000e+00
<mgrwt>
<rscale>  4 0.17394447E+03</rscale>
<asrwt>0</asrwt>
<pdfrwt beam="1">  1       21 0.17249361E+00 0.17394447E+03</pdfrwt>
<pdfrwt beam="2">  1       21 0.12804129E+00 0.17394447E+03</pdfrwt>
<totfact> 0.94685373E+01</totfact>
</mgrwt>
</event>
<event>
 6      1 +2.5168323e+02 1.74559700e+02 7.54677100e-03 1.11634100e-01
       21 -1    0    0  504  502 +0.0000000000e+00 +0.0000000000e+00 +2.2474267435e+02 2.2474267435e+02 0.0000000000e+00 0.0000e+00 -1.0000e+00
       21 -1    0    0  505  503 -0.0000000000e+00 -0.0000000000e+00 -1.0139150685e+03 1.0139150685e+03 0.0000000000e+00 0.0000e+00 -1.0000e+00
        6  1    1    2  501    0 +2.9929167050e+01 +2.9179844243e+01 -4.8042006972e+01 1.8434818357e+02 1.7300000000e+02 0.0000e+00 1.0000e+00
       -6  1    1    2    0  502 +6.6689215487e+01 +6.6778836548e-01 +4.3726602776e+01 1.9049649129e+02 1.7300000000e+02 0.0000e+00 -1.0000e+00
       21  1    1    2  504  503 -7.1361380873e+01 -4.2461523763e+01 -4.7277745343e+00 8.3173189986e+01 0.0000000000e+00 0.0000e+00 -1.0000e+00
       21  1    1    2  505  501 -2.5257001664e+01 +1.2613891155e+01 -7.8012921542e+02 7.8063987801e+02 0.0000000000e+00 0.0000e+00 -1.0000e+00
<mgrwt>
<rscale>  4 0.17455966E+03</rscale>
<asrwt>0</asrwt>
<pdfrwt beam="1">  1       21 0.34575796E-01 0.17455966E+03</pdfrwt>
<pdfrwt beam="2">  1       21 0.15598693E+00 0.17455966E+03</pdfrwt>
<totfact> 0.22117939E+03</totfact>
</mgrwt>
</event>
<event>
 6      1 +2.5168323e+02 2.00872100e+02 7.54677100e-03 1.16871900e-01
       21 -1    0    0  504  502 +0.0000000000e+00 +0.0000000000e+00 +1.8772968684e+02 1.8772968684e+02 0.0000000000e+00 0.0000e+00 -1.0000e+00
       21 -1    0    0  502  503 -0.0000000000e+00 -0.0000000000e+00 -2.7671214661e+02 2.7671214661e+02 0.0000000000e+00 0.0000e+00 -1.0000e+00
        6  1    1    2  501    0 +4.4402718999e+01 -9.2815942102e+01 -5.0114069233e+01 2.0742907342e+02 1.7300000000e+02 0.0000e+00 -1.0000e+00
       -6  1    1    2    0  503 -8.2225295458e+01 +6.7360291206e+01 -4.9806979604e+01 2.0906492595e+02 1.7300000000e+02 0.0000e+00 -1.0000e+00
       21  1    1    2  504  505 +2.2878265009e+01 +1.1869422752e+01 +1.0255261316e+01 2.7739296872e+01 0.0000000000e+00 0.0000e+00 -1.0000e+00
       21  1    1    2  505  501 +1.4944311450e+01 +1.3586228144e+01 +6.8332775018e-01 2.0208537224e+01 0.0000000000e+00 0.0000e+00 -1.0000e+00
<mgrwt>
<rscale>  4 0.20087211E+03</rscale>
<asrwt>0</asrwt>
<pdfrwt beam="1">  1       21 0.28881490E-01 0.20087211E+03</pdfrwt>
<pdfrwt beam="2">  1       21 0.42571099E-01 0.20087211E+03</pdfrwt>
<totfact> 0.60671947E+04</totfact>
</mgrwt>
</event>
<event>
 6      1 +2.5168323e+02 2.42470500e+02 7.54677100e-03 1.13358800e-01
       21 -1    0    0  504  502 +0.0000000000e+00 +0.0000000000e+00 +1.1702114527e+02 1.1702114527e+02 0.0000000000e+00 0.0000e+00 1.0000e+00
       21 -1    0    0  505  503 -0.0000000000e+00 -0.0000000000e+00 -1.3347552483e+03 1.3347552483e+03 0.0000000000e+00 0.0000e+00 1.0000e+00
        6  1    1    2  501    0 +4.0928419797e+01 +1.5779382004e+02 -4.5229079665e+02 5.1095008555e+02 1.7300000000e+02 0.0000e+00 1.0000e+00
       -6  1    1    2    0  503 +2.3901513498e+01 -1.8447586931e+02 -4.2041966911e+02 4.9120701021e+02 1.7300000000e+02 0.0000e+00 1.0000e+00
       21  1    1    2  504  501 -8.8320241791e+01 +3.2819250284e+01 +9.1046459484e+00 9.4659721514e+01 0.0000000000e+00 0.0000e+00 1.0000e+00
       21  1    1    2  505  502 +2.3490308496e+01 -6.1372010191e+00 -3.5412828323e+02 3.5495957631e+02 0.0000000000e+00 0.0000e+00 1.0000e+00
<mgrwt>
<rscale>  4 0.24247051E+03</rscale>
<asrwt>0</asrwt>
<pdfrwt beam="1">  1       21 0.18003254E-01 0.24247051E+03</pdfrwt>
<pdfrwt beam="2">  1       21 0.20534695E+00 0.24247051E+03</pdfrwt>
<totfact> 0.33318779E+03</totfact>
</mgrwt>
</event>
<event>
 6      1 +2.5168323e+02 4.11709700e+02 7.54677100e-03 1.17109600e-01
       21 -1    0    0  504  502 +0.0000000000e+00 +0.0000000000e+00 +2.6887024259e+02 2.6887024259e+02 0.0000000000e+00 0.0000e+00 1.0000e+00
       21 -1    0    0  501  503 -0.0000000000e+00 -0.0000000000e+00 -2.0707425146e+03 2.0707425146e+03 0.0000000000e+00 0.0000e+00 1.0000e+00
        6  1    1    2  501    0 +1.6273021945e+02 -9.8589646745e+01 -6.0745197680e+02 6.5964228706e+02 1.7300000000e+02 0.0000e+00 1.0000e+00
       -6  1    1    2    0  505 -4.0724306536e+02 +2.9122450106e+02 -1.0431807688e+03 1.1699631365e+03 1.7300000000e+02 0.0000e+00 1.0000e+00
       21  1    1    2  504  503 +1.8157470707e+01 +7.9997195980e+01 -1.3164845853e+02 1.5511467287e+02 0.0000000000e+00 0.0000e+00 1.0000e+00
       21  1    1    2  505  502 +2.2635537521e+02 -2.7263205029e+02 -1.9591067873e+01 3.5489266078e+02 0.0000000000e+00 0.0000e+00 1.0000e+00
<mgrwt>
<rscale>  4 0.36424025E+03</rscale>
<asrwt>0</asrwt>
<pdfrwt beam="1">  1       21 0.41364654E-01 0.41170966E+03</pdfrwt>
<pdfrwt beam="2">  1       21 0.31857577E+00 0.41170966E+03</pdfrwt>
<totfact> 0.11871675E+02</totfact>
</mgrwt>
</event>
<event>
 6      1 +2.5168323e+02 1.91983800e+02 7.54677100e-03 1.11634100e-01
       21 -1    0    0  504  502 +0.0000000000e+00 +0.0000000000e+00 +1.4763793091e+03 1.4763793091e+03 0.0000000000e+00 0.0000e+00 -1.0000e+00
       21 -1    0    0  505  503 -0.0000000000e+00 -0.0000000000e+00 -5.1247977568e+02 5.1247977568e+02 0.0000000000e+00 0.0000e+00 1.0000e+00
        6  1    1    2  501    0 +8.3116709651e+01 -3.0695319324e+01 +8.8455109013e+02 9.0565458156e+02 1.7300000000e+02 0.0000e+00 -1.0000e+00
       -6  1    1    2    0  502 -9.7618374402e+01 -4.6473736048e+01 +1.2626720872e+02 2.3991990989e+02 1.7300000000e+02 0.0000e+00 -1.0000e+00
       21  1    1    2  504  503 -7.4927263129e+00 +5.6244691510e+01 +3.9563884479e+02 3.9968700476e+02 0.0000000000e+00 0.0000e+00 1.0000e+00
       21  1    1    2  505  501 +2.1994391065e+01 +2.0924363862e+01 -4.4255761021e+02 4.4359758858e+02 0.0000000000e+00 0.0000e+00 1.0000e+00
<mgrwt>
<rscale>  4 0.19198384E+03</rscale>
<asrwt>0</asrwt>
<pdfrwt beam="1">  1       21 0.22713528E+00 0.19198384E+03</pdfrwt>
<pdfrwt beam="2">  1       21 0.78843043E-01 0.19198384E+03</pdfrwt>
<totfact> 0.12948810E+02</totfact>
</mgrwt>
</event>
<event>
 6      1 +2.5168323e+02 2.13744900e+02 7.54677100e-03 1.11634100e-01
       21 -1    0    0  505  502 +0.0000000000e+00 +0.0000000000e+00 +1.3224940187e+03 1.3224940187e+03 0.0000000000e+00 0.0000e+00 -1.0000e+00
       21 -1    0    0  504  503 -0.0000000000e+00 -0.0000000000e+00 -4.9985373555e+01 4.9985373555e+01 0.0000000000e+00 0.0000e+00 -1.0000e+00
        6  1    1    2  501    0 -4.7354543302e+01 -8.9467332465e+01 +7.6031036346e+02 7.8628729173e+02 1.7300000000e+02 0.0000e+00 -1.0000e+00
       -6  1    1    2    0  503 +4.0398397971e+01 +1.3185164435e+02 +3.4025869471e+02 4.0585941655e+02 1.7300000000e+02 0.0000e+00 -1.0000e+00
       21  1    1    2  504  502 -1.3477262752e+01 -1.7824025896e+01 +7.5636413274e+01 7.8868241539e+01 0.0000000000e+00 0.0000e+00 -1.0000e+00
       21  1    1    2  505  501 +2.0433408083e+01 -2.4560285993e+01 +9.6303173689e+01 1.0146444242e+02 0.0000000000e+00 0.0000e+00 -1.0000e+00
<mgrwt>
<rscale>  4 0.21374488E+03</rscale>
<asrwt>0</asrwt>
<pdfrwt beam="1">  1       21 0.20346059E+00 0.21374488E+03</pdfrwt>
<pdfrwt beam="2">  1       21 0.76900585E-02 0.21374488E+03</pdfrwt>
<totfact> 0.16136738E+04</totfact>
</mgrwt>
</event>
<event>
 6      1 +2.5168323e+02 1.89205800e+02 7.54677100e-03 1.07852700e-01
       21 -1    0    0  504  502 +0.0000000000e+00 +0.0000000000e+00 +1.4151657246e+03 1.4151657246e+03 0.0000000000e+00 0.0000e+00 -1.0000e+00
       21 -1    0    0  505  503 -0.0000000000e+00 -0.0000000000e+00 -2.9799651572e+02 2.9799651572e+02 0.0000000000e+00 0.0000e+00 1.0000e+00
        6  1    1    2  501    0 -1.6694086781e+01 -1.2561427862e+01 -7.8855450812e+01 1.9126856544e+02 1.7300000000e+02 0.0000e+00 1.0000e+00
       -6  1    1    2    0  503 +1.9067580324e+02 +1.2308270627e+01 -4.1411726043e+01 2.6106069509e+02 1.7300000000e+02 0.0000e+00 1.0000e+00
       21  1    1    2  504  501 -7.2555299283e+01 -3.5490306261e+01 +9.5829473419e+02 9.6169258647e+02 0.0000000000e+00 0.0000e+00 -1.0000e+00
       21  1    1    2  505  502 -1.0142641717e+02 +3.5743463496e+01 +2.7914165153e+02 2.9914039329e+02 0.0000000000e+00 0.0000e+00 1.0000e+00
<mgrwt>
<rscale>  4 0.18920577E+03</rscale>
<asrwt>0</asrwt>
<pdfrwt beam="1">  1       21 0.21771780E+00 0.18920577E+03</pdfrwt>
<pdfrwt beam="2">  1       21 0.45845618E-01 0.18920577E+03</pdfrwt>
<totfact> 0.47596407E+02</totfact>
</mgrwt>
</event>
<event>
 6      1 +2.5168323e+02 2.38635400e+02 7.54677100e-03 1.10585500e-01
       21 -1    0    0  504  502 +0.0000000000e+00 +0.0000000000e+00 +2.1287898983e+02 2.1287898983e+02 0.0000000000e+00 0.0000e+00 1.0000e+00
       21 -1    0    0  502  503 -0.0000000000e+00 -0.0000000000e+00 -8.2818373715e+02 8.2818373715e+02 0.0000000000e+00 0.0000e+00 -1.0000e+00
        6  1    1    2  501    0 +1.6261129551e+02 +5.4350482133e+01 +9.5331692045e+00 2.4375456847e+02 1.7300000000e+02 0.0000e+00 1.0000e+00
       -6  1    1    2    0  505 -1.5922934425e+02 +3.7336054499e-01 -8.7865160424e+01 2.5100480052e+02 1.7300000000e+02 0.0000e+00 -1.0000e+00
       21  1    1    2  504  501 -2.0334772960e+00 -3.2839616569e+01 -5.6884602450e+01 6.5714788611e+01 0.0000000000e+00 0.0000e+00 1.0000e+00
       21  1    1    2  505  503 -1.3484739562e+00 -2.1884226108e+01 -4.8008815366e+02 4.8058856938e+02 0.0000000000e+00 0.0000e+00 -1.0000e+00
<mgrwt>
<rscale>  4 0.23863541E+03</rscale>
<asrwt>0</asrwt>
<pdfrwt beam="1">  1       21 0.32750614E-01 0.23863541E+03</pdfrwt>
<pdfrwt beam="2">  1       21 0.12741288E+00 0.23863541E+03</pdfrwt>
<totfact> 0.39364870E+03</totfact>
</mgrwt>
</event>
<event>
 6      1 +2.5168323e+02 1.85272400e+02 7.54677100e-03 1.13358800e-01
       21 -1    0    0  505  502 +0.0000000000e+00 +0.0000000000e+00 +5.6355395534e+02 5.6355395534e+02 0.0000000000e+00 0.0000e+00 1.0000e+00
       21 -1    0    0  501  503 -0.0000000000e+00 -0.0000000000e+00 -2.3757648431e+02 2.3757648431e+02 0.0000000000e+00 0.0000e+00 1.0000e+00
        6  1    1    2  501    0 +8.9323440340e+01 +2.9180056214e+01 +1.4623877975e+02 2.4524463986e+02 1.7300000000e+02 0.0000e+00 1.0000e+00
       -6  1    1    2    0  504 -4.3861254474e+01 +2.3425855417e+01 +9.9173555406e+01 2.0551636051e+02 1.7300000000e+02 0.0000e+00 -1.0000e+00
       21  1    1    2  504  502 -2.1303612825e+01 -1.0202554975e+01 +2.1037087383e+02 2.1169279771e+02 0.0000000000e+00 0.0000e+00 1.0000e+00
       21  1    1    2  505  503 -2.4158573041e+01 -4.2403356656e+01 -1.2980573797e+02 1.3867664157e+02 0.0000000000e+00 0.0000e+00 1.0000e+00
<mgrwt>
<rscale>  4 0.18527239E+03</rscale>
<asrwt>0</asrwt>
<pdfrwt beam="1">  1       21 0.86700608E-01 0.18527239E+03</pdfrwt>
<pdfrwt beam="2">  1       21 0.36550229E-01 0.18527239E+03</pdfrwt>
<totfact> 0.83104194E+03</totfact>
</mgrwt>
</event>
<event>
 6      1 +2.5168323e+02 2.22327200e+02 7.54677100e-03 8.60661900e-02
       21 -1    0    0  504  502 +0.0000000000e+00 +0.0000000000e+00 +2.7516271419e+02 2.7516271419e+02 0.0000000000e+00 0.0000e+00 1.0000e+00
       21 -1    0    0  501  503 -0.0000000000e+00 -0.0000000000e+00 -7.8918421530e+02 7.8918421530e+02 0.0000000000e+00 0.0000e+00 1.0000e+00
        6  1    1    2  501    0 -3.4842994907e+01 -2.1589102058e+01 +8.7061675272e+01 1.9796176126e+02 1.7300000000e+02 0.0000e+00 1.0000e+00
       -6  1    1    2    0  505 +1.4152251277e+02 +5.7872548603e+01 -6.8085048595e+02 7.1893270736e+02 1.7300000000e+02 0.0000e+00 1.0000e+00
       21  1    1    2  504  503 -2.0513476786e+01 +1.3135081285e+01 +1.1594623310e+01 2.6977182580e+01 0.0000000000e+00 0.0000e+00 1.0000e+00
       21  1    1    2  505  502 -8.6166041076e+01 -4.9418527830e+01 +6.8172686253e+01 1.2047527829e+02 0.0000000000e+00 0.0000e+00 1.0000e+00
<mgrwt>
<rscale>  4 0.22232716E+03</rscale>
<asrwt>0</asrwt>
<pdfrwt beam="1">  1       21 0.42332726E-01 0.22232716E+03</pdfrwt>
<pdfrwt beam="2">  1       21 0.12141295E+00 0.22232716E+03</pdfrwt>
<totfact> 0.26857553E+03</totfact>
</mgrwt>
</event>
<event>
 6      1 +2.5168323e+02 1.79720500e+02 7.54677100e-03 1.11634100e-01
       21 -1    0    0  503  502 +0.0000000000e+00 +0.0000000000e+00 +1.3526011578e+02 1.3526011578e+02 0.0000000000e+00 0.0000e+00 -1.0000e+00
       21 -1    0    0  505  503 -0.0000000000e+00 -0.0000000000e+00 -9.7603440330e+02 9.7603440330e+02 0.0000000000e+00 0.0000e+00 -1.0000e+00
        6  1    1    2  501    0 +2.3730293224e+01 -1.0735975787e+02 -2.2942713441e+02 3.0766061567e+02 1.7300000000e+02 0.0000e+00 -1.0000e+00
       -6  1    1    2    0  504 +1.3744822051e+01 +4.0438647143e+00 -1.8328721522e+02 2.5244499646e+02 1.7300000000e+02 0.0000e+00 -1.0000e+00
       21  1    1    2  504  502 -4.2509786410e+01 -2.6071459506e+01 +4.1016365657e+01 6.4568918166e+01 0.0000000000e+00 0.0000e+00 -1.0000e+00
       21  1    1    2  505  501 +5.0346711346e+00 +1.2938735266e+02 -4.6907630355e+02 4.8661998879e+02 0.0000000000e+00 0.0000e+00 -1.0000e+00
<mgrwt>
<rscale>  4 0.17972053E+03</rscale>
<asrwt>0</asrwt>
<pdfrwt beam="1">  1       21 0.20809249E-01 0.17972053E+03</pdfrwt>
<pdfrwt beam="2">  1       21 0.15015913E+00 0.17972053E+03</pdfrwt>
<totfact> 0.64567689E+03</totfact>
</mgrwt>
</event>
<event>
 6      1 +2.5168323e+02 2.34358400e+02 7.54677100e-03 1.17389200e-01
       21 -1    0    0  504  502 +0.0000000000e+00 +0.0000000000e+00 +4.1170329962e+02 4.1170329962e+02 0.0000000000e+00 0.0000e+00 -1.0000e+00
       21 -1    0    0  501  503 -0.0000000000e+00 -0.0000000000e+00 -4.4418834858e+02 4.4418834858e+02 0.0000000000e+00 0.0000e+00 1.0000e+00
        6  1    1    2  501    0 -1.9576136408e+02 -5.7858572269e+01 +2.4313324325e+02 3.6154239036e+02 1.7300000000e+02 0.0000e+00 -1.0000e+00
       -6  1    1    2    0  502 +8.3691944306e+01 -2.9991732961e+01 -1.8668054531e+01 1.9540046532e+02 1.7300000000e+02 0.0000e+00 -1.0000e+00
       21  1    1    2  504  505 +1.0718140683e+02 +6.3254625545e+01 -1.8690017321e+02 2.2454548842e+02 0.0000000000e+00 0.0000e+00 1.0000e+00
       21  1    1    2  505  503 +4.8880129471e+00 +2.4595679685e+01 -7.0050064467e+01 7.4403304104e+01 0.0000000000e+00 0.0000e+00 1.0000e+00
<mgrwt>
<rscale>  4 0.23435845E+03</rscale>
<asrwt>0</asrwt>
<pdfrwt beam="1">  1       21 0.63338969E-01 0.23435845E+03</pdfrwt>
<pdfrwt beam="2">  1       21 0.68336669E-01 0.23435845E+03</pdfrwt>
<totfact> 0.43661788E+03</totfact>
</mgrwt>
</event>
<event>
 6      1 +2.5168323e+02 2.07524500e+02 7.54677100e-03 1.11634100e-01
       21 -1    0    0  504  502 +0.0000000000e+00 +0.0000000000e+00 +4.9162530855e+02 4.9162530855e+02 0.0000000000e+00 0.0000e+00 -1.0000e+00
       21 -1    0    0  505  503 -0.0000000000e+00 -0.0000000000e+00 -2.2701000316e+02 2.2701000316e+02 0.0000000000e+00 0.0000e+00 1.0000e+00
        6  1    1    2  501    0 -4.7146554094e+01 +6.0177417026e+01 +2.8673261533e+01 1.9129891534e+02 1.7300000000e+02 0.0000e+00 1.0000e+00
       -6  1    1    2    0  502 +1.4686986133e+02 +1.5143555033e+01 +2.8719490617e+02 3.6634682687e+02 1.7300000000e+02 0.0000e+00 -1.0000e+00
       21  1    1    2  504  503 -8.0553447317e+01 -6.2161965749e+01 +3.1792763179e+00 1.0179919282e+02 0.0000000000e+00 0.0000e+00 1.0000e+00
       21  1    1    2  505  501 -1.9169859922e+01 -1.3159006310e+01 -5.4432138633e+01 5.9190376689e+01 0.0000000000e+00 0.0000e+00 1.0000e+00
<mgrwt>
<rscale>  4 0.20752448E+03</rscale>
<asrwt>0</asrwt>
<pdfrwt beam="1">  1       21 0.75634663E-01 0.20752448E+03</pdfrwt>
<pdfrwt beam="2">  1       21 0.34924616E-01 0.20752448E+03</pdfrwt>
<totfact> 0.12210034E+04</totfact>
</mgrwt>
</event>
<event>
 6      1 +2.5168323e+02 2.94454800e+02 7.54677100e-03 1.14278100e-01
       21 -1    0    0  501  502 +0.0000000000e+00 +0.0000000000e+00 +1.3752990654e+03 1.3752990654e+03 0.0000000000e+00 0.0000e+00 -1.0000e+00
       21 -1    0    0  504  503 -0.0000000000e+00 -0.0000000000e+00 -7.6961408686e+02 7.6961408686e+02 0.0000000000e+00 0.0000e+00 -1.0000e+00
        6  1    1    2  501    0 +7.4587779747e+01 +4.4029557468e+01 -8.5634056767e+01 2.1157535418e+02 1.7300000000e+02 0.0000e+00 1.0000e+00
       -6  1    1    2    0  505 +1.4098615562e+02 +8.6353661390e+01 -5.6982790780e+02 6.1803470406e+02 1.7300000000e+02 0.0000e+00 -1.0000e+00
       21  1    1    2  504  502 -1.0414301555e+01 -8.8727713290e+01 +8.4258304521e+02 8.4730587916e+02 0.0000000000e+00 0.0000e+00 -1.0000e+00
       21  1    1    2  505  503 -2.0515963381e+02 -4.1655505567e+01 +4.1856389785e+02 4.6799721481e+02 0.0000000000e+00 0.0000e+00 -1.0000e+00
<mgrwt>
<rscale>  4 0.26420945E+03</rscale>
<asrwt>0</asrwt>
<pdfrwt beam="1">  1       21 0.21158447E+00 0.29445484E+03</pdfrwt>
<pdfrwt beam="2">  1       21 0.11840217E+00 0.29445484E+03</pdfrwt>
<totfact> 0.54559785E+01</totfact>
</mgrwt>
</event>
<event>
 6      1 +2.5168323e+02 2.03073700e+02 7.54677100e-03 8.60661900e-02
       21 -1    0    0  504  502 +0.0000000000e+00 +0.0000000000e+00 +1.0817224262e+03 1.0817224262e+03 0.0000000000e+00 0.0000e+00 1.0000e+00
       21 -1    0    0  501  503 -0.0000000000e+00 -0.0000000000e+00 -1.4718134759e+02 1.4718134759e+02 0.0000000000e+00 0.0000e+00 -1.0000e+00
        6  1    1    2  501    0 +1.8207173327e+01 +1.2751861159e+02 +1.4364000811e+02 2.5914079068e+02 1.7300000000e+02 0.0000e+00 -1.0000e+00
       -6  1    1    2    0  505 -2.6939773569e+01 -9.0287023342e+01 +2.6690475744e+01 1.9879355995e+02 1.7300000000e+02 0.0000e+00 -1.0000e+00
       21  1    1    2  504  503 +1.5944256728e+01 -5.8152856615e+01 +2.8799093546e+02 2.9423587980e+02 0.0000000000e+00 0.0000e+00 1.0000e+00
       21  1    1    2  505  502 -7.2116564865e+00 +2.0921268366e+01 +4.7621965932e+02 4.7673354338e+02 0.0000000000e+00 0.0000e+00 -1.0000e+00
<mgrwt>
<rscale>  4 0.20307366E+03</rscale>
<asrwt>0</asrwt>
<pdfrwt beam="1">  1       21 0.16641883E+00 0.20307366E+03</pdfrwt>
<pdfrwt beam="2">  1       21 0.22643285E-01 0.20307366E+03</pdfrwt>
<totfact> 0.40973379E+03</totfact>
</mgrwt>
</event>
<event>
 6      1 +2.5168323e+02 2.06602200e+02 7.54677100e-03 1.11316500e-01
       21 -1    0    0  505  502 +0.0000000000e+00 +0.0000000000e+00 +1.6786311819e+02 1.6786311819e+02 0.0000000000e+00 0.0000e+00 -1.0000e+00
       21 -1    0    0  504  503 -0.0000000000e+00 -0.0000000000e+00 -1.3239892588e+03 1.3239892588e+03 0.0000000000e+00 0.0000e+00 -1.0000e+00
        6  1    1    2  501    0 +5.7301784721e+01 +1.1863814630e+02 +2.2074762310e+01 2.1857447111e+02 1.7300000000e+02 0.0000e+00 -1.0000e+00
       -6  1    1    2    0  502 +8.1154930288e+01 -6.0736699148e+01 -2.5618886513e+02 3.2532568904e+02 1.7300000000e+02 0.0000e+00 -1.0000e+00
       21  1    1    2  504  501 +7.1136959741e-01 +2.0382468845e+01 -1.1235953039e+01 2.3285139545e+01 0.0000000000e+00 0.0000e+00 1.0000e+00
       21  1    1    2  505  503 -1.3916808461e+02 -7.8283916002e+01 -9.1077608479e+02 9.2466707733e+02 0.0000000000e+00 0.0000e+00 -1.0000e+00
<mgrwt>
<rscale>  4 0.20660217E+03</rscale>
<asrwt>0</asrwt>
<pdfrwt beam="1">  1       21 0.25825096E-01 0.20660217E+03</pdfrwt>
<pdfrwt beam="2">  1       21 0.20369065E+00 0.20660217E+03</pdfrwt>
<totfact> 0.17842361E+03</totfact>
</mgrwt>
</event>
<event>
 6      1 +2.5168323e+02 2.24278000e+02 7.54677100e-03 1.11634100e-01
       21 -1    0    0  503  502 +0.0000000000e+00 +0.0000000000e+00 +4.5289359238e+02 4.5289359238e+02 0.0000000000e+00 0.0000e+00 1.0000e+00
       21 -1    0    0  505  503 -0.0000000000e+00 -0.0000000000e+00 -3.7180250244e+02 3.7180250244e+02 0.0000000000e+00 0.0000e+00 1.0000e+00
        6  1    1    2  501    0 +1.5561304579e+02 +1.4501147476e+01 +7.7252850045e+01 2.4560681207e+02 1.7300000000e+02 0.0000e+00 1.0000e+00
       -6  1    1    2    0  504 -1.1707065007e+02 -5.3917291713e+01 -2.1064685580e+02 3.0151900323e+02 1.7300000000e+02 0.0000e+00 1.0000e+00
       21  1    1    2  504  502 -1.6134504637e+01 +2.4497364586e+01 +2.3922023647e+02 2.4101195956e+02 0.0000000000e+00 0.0000e+00 1.0000e+00
       21  1    1    2  505  501 -2.2407891080e+01 +1.4918779651e+01 -2.4735140773e+01 3.6558319956e+01 0.0000000000e+00 0.0000e+00 -1.0000e+00
<mgrwt>
<rscale>  4 0.22427796E+03</rscale>
<asrwt>0</asrwt>
<pdfrwt beam="1">  1       21 0.69675937E-01 0.22427796E+03</pdfrwt>
<pdfrwt beam="2">  1       21 0.57200386E-01 0.22427796E+03</pdfrwt>
<totfact> 0.52483989E+03</totfact>
</mgrwt>
</event>
<event>
 6      1 +2.5168323e+02 2.51282600e+02 7.54677100e-03 1.13358800e-01
       21 -1    0    0  504  502 +0.0000000000e+00 +0.0000000000e+00 +3.2178993799e+02 3.2178993799e+02 0.0000000000e+00 0.0000e+00 1.0000e+00
       21 -1    0    0  501  503 -0.0000000000e+00 -0.0000000000e+00 -3.5051990043e+02 3.5051990043e+02 0.0000000000e+00 0.0000e+00 -1.0000e+00
        6  1    1    2  501    0 +7.4202877450e+01 -1.6130443228e+02 -1.4649689914e+01 2.4833203642e+02 1.7300000000e+02 0.0000e+00 1.0000e+00
       -6  1    1    2    0  502 -1.2440165097e+02 +1.4198562389e+02 -6.6172739134e+01 2.6446837157e+02 1.7300000000e+02 0.0000e+00 -1.0000e+00
       21  1    1    2  504  505 +3.1897082470e+01 -1.7644003136e+00 +9.9494121972e+01 1.0449697261e+02 0.0000000000e+00 0.0000e+00 1.0000e+00
       21  1    1    2  505  503 +1.8301691048e+01 +2.1083208705e+01 -4.7401655360e+01 5.5012457820e+01 0.0000000000e+00 0.0000e+00 1.0000e+00
<mgrwt>
<rscale>  4 0.25128258E+03</rscale>
<asrwt>0</asrwt>
<pdfrwt beam="1">  1       21 0.49506144E-01 0.25128258E+03</pdfrwt>
<pdfrwt beam="2">  1       21 0.53926138E-01 0.25128258E+03</pdfrwt>
<totfact> 0.12213797E+04</totfact>
</mgrwt>
</event>
<event>
 6      1 +2.5168323e+02 2.79580600e+02 7.54677100e-03 1.13358800e-01
       21 -1    0    0  505  502 +0.0000000000e+00 +0.0000000000e+00 +6.2632120585e+02 6.2632120585e+02 0.0000000000e+00 0.0000e+00 -1.0000e+00
       21 -1    0    0  501  503 -0.0000000000e+00 -0.0000000000e+00 -8.4712118541e+02 8.4712118541e+02 0.0000000000e+00 0.0000e+00 -1.0000e+00
        6  1    1    2  501    0 -1.9891355431e+02 -1.3963734490e+02 -5.5518590289e+01 3.0344110474e+02 1.7300000000e+02 0.0000e+00 -1.0000e+00
       -6  1    1    2    0  504 +1.4768291773e+02 +1.1567093026e+02 +1.1152333599e+02 2.7848960980e+02 1.7300000000e+02 0.0000e+00 1.0000e+00
       21  1    1    2  504  502 +5.5612071269e+01 +4.3772665475e+00 +3.0464768060e+02 3.0971288677e+02 0.0000000000e+00 0.0000e+00 -1.0000e+00
       21  1    1    2  505  503 -4.3814346919e+00 +1.9589148094e+01 -5.8145240587e+02 5.8179878995e+02 0.0000000000e+00 0.0000e+00 -1.0000e+00
<mgrwt>
<rscale>  4 0.27958060E+03</rscale>
<asrwt>0</asrwt>
<pdfrwt beam="1">  1       21 0.96357108E-01 0.27958060E+03</pdfrwt>
<pdfrwt beam="2">  1       21 0.13032634E+00 0.27958060E+03</pdfrwt>
<totfact> 0.35350878E+02</totfact>
</mgrwt>
</event>
<event>
 6      1 +2.5168323e+02 1.84584700e+02 7.54677100e-03 1.11476600e-01
       21 -1    0    0  503  502 +0.0000000000e+00 +0.0000000000e+00 +2.3394773068e+02 2.3394773068e+02 0.0000000000e+00 0.0000e+00 1.0000e+00
       21 -1    0    0  505  503 -0.0000000000e+00 -0.0000000000e+00 -7.7793352193e+02 7.7793352193e+02 0.0000000000e+00 0.0000e+00 -1.0000e+00
        6  1    1    2  501    0 +7.5745232575e+01 -3.2788644541e+01 +7.8567876948e+01 2.0715778227e+02 1.7300000000e+02 0.0000e+00 1.0000e+00
       -6  1    1    2    0  502 -4.1368670457e+01 +2.2326826978e+00 +2.2313201429e+00 1.7790539777e+02 1.7300000000e+02 0.0000e+00 1.0000e+00
       21  1    1    2  504  501 -2.4771620124e+01 +8.9663217206e+00 -2.8642766237e+02 2.8763663511e+02 0.0000000000e+00 0.0000e+00 -1.0000e+00
       21  1    1    2  505  504 -9.6049419936e+00 +2.1589640123e+01 -3.3835732598e+02 3.3918143746e+02 0.0000000000e+00 0.0000e+00 -1.0000e+00
<mgrwt>
<rscale>  4 0.18458469E+03</rscale>
<asrwt>0</asrwt>
<pdfrwt beam="1">  1       21 0.35991958E-01 0.18458469E+03</pdfrwt>
<pdfrwt beam="2">  1       21 0.11968208E+00 0.18458469E+03</pdfrwt>
<totfact> 0.39842383E+03</totfact>
</mgrwt>
</event>
<event>
 6      1 +2.5168323e+02 2.52848700e+02 7.54677100e-03 1.07852700e-01
       21 -1    0    0  505  502 +0.0000000000e+00 +0.0000000000e+00 +8.7013805971e+02 8.7013805971e+02 0.0000000000e+00 0.0000e+00 -1.0000e+00
       21 -1    0    0  502  503 -0.0000000000e+00 -0.0000000000e+00 -6.4075991001e+02 6.4075991001e+02 0.0000000000e+00 0.0000e+00 1.0000e+00
        6  1    1    2  501    0 -3.3432893867e+01 -1.3173053430e+02 -1.1426556205e+02 2.4790383363e+02 1.7300000000e+02 0.0000e+00 -1.0000e+00
       -6  1    1    2    0  503 -6.9293396578e-02 -6.2367919830e+01 -4.1160746238e+02 4.5082087941e+02 1.7300000000e+02 0.0000e+00 1.0000e+00
       21  1    1    2  504  501 -1.1640848816e+01 +1.8497058247e+02 +2.8686197493e+02 3.4152513583e+02 0.0000000000e+00 0.0000e+00 -1.0000e+00
       21  1    1    2  505  504 +4.5143036080e+01 +9.1278716579e+00 +4.6838919919e+02 4.7064812086e+02 0.0000000000e+00 0.0000e+00 -1.0000e+00
<mgrwt>
<rscale>  4 0.23345783E+03</rscale>
<asrwt>0</asrwt>
<pdfrwt beam="1">  1       21 0.13386739E+00 0.25284873E+03</pdfrwt>
<pdfrwt beam="2">  1       21 0.98578448E-01 0.25284873E+03</pdfrwt>
<totfact> 0.31996055E+02</totfact>
</mgrwt>
</event>
<event>
 6      1 +2.5168323e+02 3.12670500e+02 7.54677100e-03 1.17389200e-01
       21 -1    0    0  504  502 +0.0000000000e+00 +0.0000000000e+00 +4.8203930147e+02 4.8203930147e+02 0.0000000000e+00 0.0000e+00 -1.0000e+00
       21 -1    0    0  501  503 -0.0000000000e+00 -0.0000000000e+00 -1.2196722497e+03 1.2196722497e+03 0.0000000000e+00 0.0000e+00 -1.0000e+00
        6  1    1    2  501    0 +2.0221147658e+02 -1.7273757838e+02 -3.1186846802e+02 4.4488053856e+02 1.7300000000e+02 0.0000e+00 -1.0000e+00
       -6  1    1    2    0  502 +5.3873971239e+01 +1.0397561499e+02 +3.6547338263e+02 4.2096689502e+02 1.7300000000e+02 0.0000e+00 -1.0000e+00
       21  1    1    2  504  505 -5.4892317848e+01 -2.6185452054e+00 -1.3424503656e+02 1.4505775808e+02 0.0000000000e+00 0.0000e+00 -1.0000e+00
       21  1    1    2  505  503 -2.0119312997e+02 +7.1380508594e+01 -6.5699282629e+02 6.9080635952e+02 0.0000000000e+00 0.0000e+00 -1.0000e+00
<mgrwt>
<rscale>  4 0.28268558E+03</rscale>
<asrwt>0</asrwt>
<pdfrwt beam="1">  1       21 0.74159893E-01 0.31267048E+03</pdfrwt>
<pdfrwt beam="2">  1       21 0.18764188E+00 0.31267048E+03</pdfrwt>
<totfact> 0.23362298E+02</totfact>
</mgrwt>
</event>
<event>
 6      1 +2.5168323e+02 3.50747000e+02 7.54677100e-03 1.11476600e-01
       21 -1    0    0  505  502 +0.0000000000e+00 +0.0000000000e+00 +1.0786162916e+03 1.0786162916e+03 0.0000000000e+00 0.0000e+00 1.0000e+00
       21 -1    0    0  504  503 -0.0000000000e+00 -0.0000000000e+00 -2.4774357688e+03 2.4774357688e+03 0.0000000000e+00 0.0000e+00 -1.0000e+00
        6  1    1    2  501    0 +2.9351671057e+02 -7.3557855596e+01 -1.3291193934e+02 3.7303806927e+02 1.7300000000e+02 0.0000e+00 -1.0000e+00
       -6  1    1    2    0  502 -3.0620786856e+02 +6.9443227678e+00 +9.2421157541e+02 9.8889206616e+02 1.7300000000e+02 0.0000e+00 1.0000e+00
       21  1    1    2  504  501 +1.6852371766e+01 -1.2294930837e+01 -8.5073657720e+01 8.7593921001e+01 0.0000000000e+00 0.0000e+00 1.0000e+00
       21  1    1    2  505  503 -4.1612137802e+00 +7.8908463666e+01 -2.1050454556e+03 2.1065280040e+03 0.0000000000e+00 0.0000e+00 -1.0000e+00
<mgrwt>
<rscale>  4 0.35074699E+03</rscale>
<asrwt>0</asrwt>
<pdfrwt beam="1">  1       21 0.16594097E+00 0.35074699E+03</pdfrwt>
<pdfrwt beam="2">  1       21 0.38114396E+00 0.35074699E+03</pdfrwt>
<totfact> 0.19865377E+00</totfact>
</mgrwt>
</event>
<event>
 6      1 +2.5168323e+02 2.23163700e+02 7.54677100e-03 1.11476600e-01
       21 -1    0    0  503  502 +0.0000000000e+00 +0.0000000000e+00 +2.1654657799e+02 2.1654657799e+02 0.0000000000e+00 0.0000e+00 -1.0000e+00
       21 -1    0    0  505  503 -0.0000000000e+00 -0.0000000000e+00 -1.7566946068e+03 1.7566946068e+03 0.0000000000e+00 0.0000e+00 -1.0000e+00
        6  1    1    2  501    0 -7.9017641911e+01 +1.6333999830e+02 -3.8891568960e+01 2.5370316693e+02 1.7300000000e+02 0.0000e+00 1.0000e+00
       -6  1    1    2    0  502 +9.2709888527e+01 -7.1893453320e+01 -9.7754812270e+00 2.0925666559e+02 1.7300000000e+02 0.0000e+00 -1.0000e+00
       21  1    1    2  504  501 -9.7572352942e+01 -1.0694157736e+02 -1.1087178799e+03 1.1181288845e+03 0.0000000000e+00 0.0000e+00 -1.0000e+00
       21  1    1    2  505  504 +8.3880106326e+01 +1.5495032384e+01 -3.8276309867e+02 3.9215246775e+02 0.0000000000e+00 0.0000e+00 1.0000e+00
<mgrwt>
<rscale>  4 0.22316372E+03</rscale>
<asrwt>0</asrwt>
<pdfrwt beam="1">  1       21 0.33314857E-01 0.22316372E+03</pdfrwt>
<pdfrwt beam="2">  1       21 0.27026071E+00 0.22316372E+03</pdfrwt>
<totfact> 0.42238347E+02</totfact>
</mgrwt>
</event>
<event>
 6      1 +2.5168323e+02 3.40966700e+02 7.54677100e-03 1.11316500e-01
       21 -1    0    0  505  502 +0.0000000000e+00 +0.0000000000e+00 +1.5636357793e+03 1.5636357793e+03 0.0000000000e+00 0.0000e+00 -1.0000e+00
       21 -1    0    0  504  503 -0.0000000000e+00 -0.0000000000e+00 -1.8714848688e+02 1.8714848688e+02 0.0000000000e+00 0.0000e+00 -1.0000e+00
        6  1    1    2  501    0 +1.5857187648e+02 +2.2565009964e+02 +9.8636910421e+02 1.0387088222e+03 1.7300000000e+02 0.0000e+00 -1.0000e+00
       -6  1    1    2    0  502 -2.2925108288e+02 -2.1307531555e+02 +2.9922545916e+02 4.6628534665e+02 1.7300000000e+02 0.0000e+00 -1.0000e+00
       21  1    1    2  504  501 +3.7241357266e+01 -4.5300773424e+00 +1.6227480550e+02 1.6655495427e+02 0.0000000000e+00 0.0000e+00 1.0000e+00
       21  1    1    2  505  503 +3.3437849130e+01 -8.0447067569e+00 -7.1382076459e+01 7.9235143092e+01 0.0000000000e+00 0.0000e+00 -1.0000e+00
<mgrwt>
<rscale>  4 0.34096674E+03</rscale>
<asrwt>0</asrwt>
<pdfrwt beam="1">  1       21 0.24055934E+00 0.34096674E+03</pdfrwt>
<pdfrwt beam="2">  1       21 0.28792076E-01 0.34096674E+03</pdfrwt>
<totfact> 0.76154314E+02</totfact>
</mgrwt>
</event>
<event>
 6      1 +2.5168323e+02 2.03383700e+02 7.54677100e-03 1.08788200e-01
       21 -1    0    0  501  502 +0.0000000000e+00 +0.0000000000e+00 +6.0968756369e+01 6.0968756369e+01 0.0000000000e+00 0.0000e+00 -1.0000e+00
       21 -1    0    0  502  503 -0.0000000000e+00 -0.0000000000e+00 -1.5079849635e+03 1.5079849635e+03 0.0000000000e+00 0.0000e+00 1.0000e+00
        6  1    1    2  501    0 +1.1939174068e+02 -1.6565819607e+01 -2.7386325109e+02 3.4562826045e+02 1.7300000000e+02 0.0000e+00 -1.0000e+00
       -6  1    1    2    0  504 -8.8574374107e+01 -4.3285086567e+01 -4.1507859719e+02 4.6036752743e+02 1.7300000000e+02 0.0000e+00 1.0000e+00
       21  1    1    2  504  505 -3.7325434184e+01 +2.5344631501e+01 -2.8159288368e+02 2.8518430974e+02 0.0000000000e+00 0.0000e+00 -1.0000e+00
       21  1    1    2  505  503 +6.5080676082e+00 +3.4506274673e+01 -4.7648147515e+02 4.7777362223e+02 0.0000000000e+00 0.0000e+00 1.0000e+00
<mgrwt>
<rscale>  4 0.20338368E+03</rscale>
<asrwt>0</asrwt>
<pdfrwt beam="1">  1       21 0.93798090E-02 0.20338368E+03</pdfrwt>
<pdfrwt beam="2">  1       21 0.23199768E+00 0.20338368E+03</pdfrwt>
<totfact> 0.76503546E+03</totfact>
</mgrwt>
</event>
<event>
 6      1 +2.5168323e+02 1.82327700e+02 7.54677100e-03 1.11634100e-01
       21 -1    0    0  503  502 +0.0000000000e+00 +0.0000000000e+00 +1.1188185463e+03 1.1188185463e+03 0.0000000000e+00 0.0000e+00 1.0000e+00
       21 -1    0    0  505  503 -0.0000000000e+00 -0.0000000000e+00 -7.7912139741e+01 7.7912139741e+01 0.0000000000e+00 0.0000e+00 1.0000e+00
        6  1    1    2  501    0 +1.0950189119e+01 +2.0358705962e+01 +3.8224668565e+02 4.2020936715e+02 1.7300000000e+02 0.0000e+00 1.0000e+00
       -6  1    1    2    0  504 -8.4045750993e+01 -4.5840679386e+01 +5.7327187639e+02 6.0641132939e+02 1.7300000000e+02 0.0000e+00 -1.0000e+00
       21  1    1    2  504  502 +3.5994027602e+01 -3.1197197199e+00 +1.1099130988e+02 1.1672349182e+02 0.0000000000e+00 0.0000e+00 1.0000e+00
       21  1    1    2  505  501 +3.7101534272e+01 +2.8601693144e+01 -2.5603465365e+01 5.3386497682e+01 0.0000000000e+00 0.0000e+00 1.0000e+00
<mgrwt>
<rscale>  4 0.18232765E+03</rscale>
<asrwt>0</asrwt>
<pdfrwt beam="1">  1       21 0.17212592E+00 0.18232765E+03</pdfrwt>
<pdfrwt beam="2">  1       21 0.11986484E-01 0.18232765E+03</pdfrwt>
<totfact> 0.12221593E+04</totfact>
</mgrwt>
</event>
<event>
 6      1 +2.5168323e+02 2.43101800e+02 7.54677100e-03 1.11634100e-01
       21 -1    0    0  504  502 +0.0000000000e+00 +0.0000000000e+00 +3.7437553698e+02 3.7437553698e+02 0.0000000000e+00 0.0000e+00 -1.0000e+00
       21 -1    0    0  505  503 -0.0000000000e+00 -0.0000000000e+00 -5.4660239478e+02 5.4660239478e+02 0.0000000000e+00 0.0000e+00 -1.0000e+00
        6  1    1    2  501    0 -4.7500476967e+00 +1.2894013781e+02 +9.1975316054e+01 2.3459876567e+02 1.7300000000e+02 0.0000e+00 -1.0000e+00
       -6  1    1    2    0  502 +5.9532937529e+01 -2.1738625080e+02 +7.2164404038e+01 2.9315124748e+02 1.7300000000e+02 0.0000e+00 -1.0000e+00
       21  1    1    2  504  503 +1.7625632194e+00 +2.7759577048e+01 +1.5413742708e+01 3.1800695138e+01 0.0000000000e+00 0.0000e+00 -1.0000e+00
       21  1    1    2  505  501 -5.6545453052e+01 +6.0686535941e+01 -3.5178032060e+02 3.6142722347e+02 0.0000000000e+00 0.0000e+00 -1.0000e+00
<mgrwt>
<rscale>  4 0.24310177E+03</rscale>
<asrwt>0</asrwt>
<pdfrwt beam="1">  1       21 0.57596237E-01 0.24310177E+03</pdfrwt>
<pdfrwt beam="2">  1       21 0.84092675E-01 0.24310177E+03</pdfrwt>
<totfact> 0.33417793E+03</totfact>
</mgrwt>
</event>
<event>
 6      1 +2.5168323e+02 3.19097400e+02 7.54677100e-03 1.07852700e-01
       21 -1    0    0  504  502 +0.0000000000e+00 +0.0000000000e+00 +2.8465998499e+02 2.8465998499e+02 0.0000000000e+00 0.0000e+00 -1.0000e+00
       21 -1    0    0  505  503 -0.0000000000e+00 -0.0000000000e+00 -1.0748452694e+03 1.0748452694e+03 0.0000000000e+00 0.0000e+00 1.0000e+00
        6  1    1    2  501    0 -1.6004714272e+02 +1.6710711182e+02 +6.1688647976e+01 2.9542234852e+02 1.7300000000e+02 0.0000e+00 -1.0000e+00
       -6  1    1    2    0  503 +1.3294055989e+02 -2.1718833627e+02 -8.8124514571e+02 9.3346985635e+02 1.7300000000e+02 0.0000e+00 1.0000e+00
       21  1    1    2  504  501 -5.6227354561e+00 +5.8364055462e+01 +6.0814742745e+01 8.4477281319e+01 0.0000000000e+00 0.0000e+00 1.0000e+00
       21  1    1    2  505  502 +3.2729318291e+01 -8.2828310158e+00 -3.1443529400e+01 4.6135768191e+01 0.0000000000e+00 0.0000e+00 1.0000e+00
<mgrwt>
<rscale>  4 0.31909741E+03</rscale>
<asrwt>0</asrwt>
<pdfrwt beam="1">  1       21 0.43793844E-01 0.31909741E+03</pdfrwt>
<pdfrwt beam="2">  1       21 0.16536081E+00 0.31909741E+03</pdfrwt>
<totfact> 0.10394312E+03</totfact>
</mgrwt>
</event>
<event>
 6      1 +2.5168323e+02 1.94635100e+02 7.54677100e-03 1.07852700e-01
       21 -1    0    0  504  502 +0.0000000000e+00 +0.0000000000e+00 +4.2664404667e+02 4.2664404667e+02 0.0000000000e+00 0.0000e+00 -1.0000e+00
       21 -1    0    0  505  503 -0.0000000000e+00 -0.0000000000e+00 -3.6504619238e+02 3.6504619238e+02 0.0000000000e+00 0.0000e+00 1.0000e+00
        6  1    1    2  501    0 -5.4570354679e+01 +8.5751818754e+01 -2.2111257959e+02 2.9858176582e+02 1.7300000000e+02 0.0000e+00 1.0000e+00
       -6  1    1    2    0  503 -7.3983716123e+01 -8.4868436175e+01 +4.9373608587e+01 2.1223335019e+02 1.7300000000e+02 0.0000e+00 -1.0000e+00
       21  1    1    2  504  501 +1.0090019937e+02 +2.5596521889e+01 +2.1401554157e+02 2.3798883209e+02 0.0000000000e+00 0.0000e+00 -1.0000e+00
       21  1    1    2  505  502 +2.7653871427e+01 -2.6479904468e+01 +1.9321283726e+01 4.2886290937e+01 0.0000000000e+00 0.0000e+00 -1.0000e+00
<mgrwt>
<rscale>  4 0.19463507E+03</rscale>
<asrwt>0</asrwt>
<pdfrwt beam="1">  1       21 0.65637546E-01 0.19463507E+03</pdfrwt>
<pdfrwt beam="2">  1       21 0.56160952E-01 0.19463507E+03</pdfrwt>
<totfact> 0.63578692E+03</totfact>
</mgrwt>
</event>
<event>
 6      1 +2.5168323e+02 2.00955500e+02 7.54677100e-03 1.11316500e-01
       21 -1    0    0  505  502 +0.0000000000e+00 +0.0000000000e+00 +2.6123439005e+02 2.6123439005e+02 0.0000000000e+00 0.0000e+00 -1.0000e+00
       21 -1    0    0  504  503 -0.0000000000e+00 -0.0000000000e+00 -5.7323300470e+02 5.7323300470e+02 0.0000000000e+00 0.0000e+00 -1.0000e+00
        6  1    1    2  501    0 -9.8880777506e+01 -1.1414745771e+01 -9.6328111674e+01 2.2162086923e+02 1.7300000000e+02 0.0000e+00 -1.0000e+00
       -6  1    1    2    0  502 +8.0283149777e+01 -8.2393502935e+01 +1.1195490581e+02 2.3600206440e+02 1.7300000000e+02 0.0000e+00 -1.0000e+00
       21  1    1    2  504  501 -1.6789246315e+01 +1.1949898228e+02 -1.4300459631e+02 1.8711547270e+02 0.0000000000e+00 0.0000e+00 -1.0000e+00
       21  1    1    2  505  503 +3.5386874044e+01 -2.5690733579e+01 -1.8462081247e+02 1.8972898841e+02 0.0000000000e+00 0.0000e+00 -1.0000e+00
<mgrwt>
<rscale>  4 0.20095546E+03</rscale>
<asrwt>0</asrwt>
<pdfrwt beam="1">  1       21 0.40189907E-01 0.20095546E+03</pdfrwt>
<pdfrwt beam="2">  1       21 0.88189692E-01 0.20095546E+03</pdfrwt>
<totfact> 0.65282084E+03</totfact>
</mgrwt>
</event>
<event>
 6      1 +2.5168323e+02 2.71385500e+02 7.54677100e-03 1.13358800e-01
       21 -1    0    0  504  502 +0.0000000000e+00 +0.0000000000e+00 +8.2398753805e+02 8.2398753805e+02 0.0000000000e+00 0.0000e+00 -1.0000e+00
       21 -1    0    0  505  503 -0.0000000000e+00 -0.0000000000e+00 -2.7325922529e+02 2.7325922529e+02 0.0000000000e+00 0.0000e+00 1.0000e+00
        6  1    1    2  501    0 +1.7552015868e+02 -7.5829547926e-02 +9.6895375268e+01 2.6481133964e+02 1.7300000000e+02 0.0000e+00 -1.0000e+00
       -6  1    1    2    0  503 -2.2940673499e+02 -2.2239100257e+01 -6.9937280259e+01 2.9655058727e+02 1.7300000000e+02 0.0000e+00 1.0000e+00
       21  1    1    2  504  501 +2.7973707926e+01 +2.7011114216e+01 +4.9633371499e+02 4.9785468288e+02 0.0000000000e+00 0.0000e+00 -1.0000e+00
       21  1    1    2  505  502 +2.5912868379e+01 -4.6961844103e+00 +2.7436502752e+01 3.8030153548e+01 0.0000000000e+00 0.0000e+00 -1.0000e+00
<mgrwt>
<rscale>  4 0.27138553E+03</rscale>
<asrwt>0</asrwt>
<pdfrwt beam="1">  1       21 0.12676731E+00 0.27138553E+03</pdfrwt>
<pdfrwt beam="2">  1       21 0.42039881E-01 0.27138553E+03</pdfrwt>
<totfact> 0.23588346E+03</totfact>
</mgrwt>
</event>
<event>
 6      1 +2.5168323e+02 2.67719500e+02 7.54677100e-03 1.08788200e-01
       21 -1    0    0  501  502 +0.0000000000e+00 +0.0000000000e+00 +9.0887279110e+02 9.0887279110e+02 0.0000000000e+00 0.0000e+00 -1.0000e+00
       21 -1    0    0  502  503 -0.0000000000e+00 -0.0000000000e+00 -3.4494577804e+02 3.4494577804e+02 0.0000000000e+00 0.0000e+00 -1.0000e+00
        6  1    1    2  501    0 -2.0362152972e+02 +3.2842291171e+01 +6.8501016880e+02 7.3600833882e+02 1.7300000000e+02 0.0000e+00 -1.0000e+00
       -6  1    1    2    0  505 -2.7307987122e+01 -3.4428250239e+01 +7.4869781422e+01 1.9356010629e+02 1.7300000000e+02 0.0000e+00 1.0000e+00
       21  1    1    2  504  503 +3.3160228394e+01 -3.3733554668e+01 -7.8176917310e+01 9.1373868572e+01 0.0000000000e+00 0.0000e+00 1.0000e+00
       21  1    1    2  505  504 +1.9776928844e+02 +3.5319513735e+01 -1.1777601986e+02 2.3287625546e+02 0.0000000000e+00 0.0000e+00 -1.0000e+00
<mgrwt>
<rscale>  4 0.24213721E+03</rscale>
<asrwt>0</asrwt>
<pdfrwt beam="1">  1       21 0.13982658E+00 0.26771947E+03</pdfrwt>
<pdfrwt beam="2">  1       21 0.53068582E-01 0.26771947E+03</pdfrwt>
<totfact> 0.11307315E+03</totfact>
</mgrwt>
</event>
<event>
 6      1 +2.5168323e+02 2.05547200e+02 7.54677100e-03 1.07852700e-01
       21 -1    0    0  504  502 +0.0000000000e+00 +0.0000000000e+00 +1.7314691344e+02 1.7314691344e+02 0.0000000000e+00 0.0000e+00 1.0000e+00
       21 -1    0    0  505  503 -0.0000000000e+00 -0.0000000000e+00 -1.0615473345e+03 1.0615473345e+03 0.0000000000e+00 0.0000e+00 1.0000e+00
        6  1    1    2  501    0 -1.0876003000e+02 -1.0541216470e+01 -9.0579791496e+02 9.2862194897e+02 1.7300000000e+02 0.0000e+00 1.0000e+00
       -6  1    1    2    0  503 +1.2516929526e+02 +5.4635739191e+01 +3.4544899292e+01 2.2310259196e+02 1.7300000000e+02 0.0000e+00 1.0000e+00
       21  1    1    2  504  501 -3.8272973084e+01 -9.5238026407e+00 -2.4900521546e+00 3.9518649333e+01 0.0000000000e+00 0.0000e+00 -1.0000e+00
       21  1    1    2  505  502 +2.1863707823e+01 -3.4570720080e+01 -1.4657353203e+01 4.3451057634e+01 0.0000000000e+00 0.0000e+00 1.0000e+00
<mgrwt>
<rscale>  4 0.20554716E+03</rscale>
<asrwt>0</asrwt>
<pdfrwt beam="1">  1       21 0.26637987E-01 0.20554716E+03</pdfrwt>
<pdfrwt beam="2">  1       21 0.16331497E+00 0.20554716E+03</pdfrwt>
<totfact> 0.31565791E+03</totfact>
</mgrwt>
</event>
<event>
 6      1 +2.5168323e+02 3.06815000e+02 7.54677100e-03 1.13358800e-01
       21 -1    0    0  501  502 +0.0000000000e+00 +0.0000000000e+00 +2.5245283369e+03 2.5245283369e+03 0.0000000000e+00 0.0000e+00 1.0000e+00
       21 -1    0    0  505  503 -0.0000000000e+00 -0.0000000000e+00 -1.0564894112e+02 1.0564894112e+02 0.0000000000e+00 0.0000e+00 1.0000e+00
        6  1    1    2  501    0 -4.9437051247e+01 -2.6756635698e+01 +2.5016032222e+02 3.0930426186e+02 1.7300000000e+02 0.0000e+00 -1.0000e+00
       -6  1    1    2    0  503 -4.8030528880e+01 +2.9008978028e+02 +1.4511779911e+03 1.4907399418e+03 1.7300000000e+02 0.0000e+00 1.0000e+00
       21  1    1    2  504  502 +7.3939681436e+01 -2.0892519349e+02 +7.3552435517e+02 7.6818805641e+02 0.0000000000e+00 0.0000e+00 1.0000e+00
       21  1    1    2  505  504 +2.3527898691e+01 -5.4407951092e+01 -1.7983272636e+01 6.1945017988e+01 0.0000000000e+00 0.0000e+00 1.0000e+00
<mgrwt>
<rscale>  4 0.27020627E+03</rscale>
<asrwt>0</asrwt>
<pdfrwt beam="1">  1       21 0.38838893E+00 0.30681501E+03</pdfrwt>
<pdfrwt beam="2">  1       21 0.16253685E-01 0.30681501E+03</pdfrwt>
<totfact> 0.30045320E+02</totfact>
</mgrwt>
</event>
<event>
 6      1 +2.5168323e+02 2.02909800e+02 7.54677100e-03 1.17341900e-01
       21 -1    0    0  505  502 +0.0000000000e+00 +0.0000000000e+00 +4.9818241075e+02 4.9818241075e+02 0.0000000000e+00 0.0000e+00 -1.0000e+00
       21 -1    0    0  504  503 -0.0000000000e+00 -0.0000000000e+00 -1.3721206479e+02 1.3721206479e+02 0.0000000000e+00 0.0000e+00 -1.0000e+00
        6  1    1    2  501    0 +9.7182212689e+01 +2.8809484426e+01 +2.9121109545e+02 3.5356367315e+02 1.7300000000e+02 0.0000e+00 -1.0000e+00
       -6  1    1    2    0  503 -9.2748544334e+01 -2.2028260135e+01 +1.4545236565e+01 1.9806085082e+02 1.7300000000e+02 0.0000e+00 -1.0000e+00
       21  1    1    2  504  502 +2.0248408173e+01 -2.3878908813e+01 +3.7717605399e+01 4.9018548293e+01 0.0000000000e+00 0.0000e+00 -1.0000e+00
       21  1    1    2  505  501 -2.4682076528e+01 +1.7097684523e+01 +1.7496408551e+01 3.4751403280e+01 0.0000000000e+00 0.0000e+00 1.0000e+00
<mgrwt>
<rscale>  4 0.20290981E+03</rscale>
<asrwt>0</asrwt>
<pdfrwt beam="1">  1       21 0.76643447E-01 0.20290981E+03</pdfrwt>
<pdfrwt beam="2">  1       21 0.21109549E-01 0.20290981E+03</pdfrwt>
<totfact> 0.31421851E+04</totfact>
</mgrwt>
</event>
<event>
 6      1 +2.5168323e+02 1.79444300e+02 7.54677100e-03 1.17109600e-01
       21 -1    0    0  504  502 +0.0000000000e+00 +0.0000000000e+00 +7.4101190244e+01 7.4101190244e+01 0.0000000000e+00 0.0000e+00 -1.0000e+00
       21 -1    0    0  501  503 -0.0000000000e+00 -0.0000000000e+00 -8.1509770887e+02 8.1509770887e+02 0.0000000000e+00 0.0000e+00 -1.0000e+00
        6  1    1    2  501    0 -4.1735178750e+01 +3.5977351157e+01 -2.9674303602e+02 3.4788162407e+02 1.7300000000e+02 0.0000e+00 1.0000e+00
       -6  1    1    2    0  505 +3.2173034255e+01 -2.7573003926e+01 -4.1866363758e+02 4.5497650061e+02 1.7300000000e+02 0.0000e+00 1.0000e+00
       21  1    1    2  504  503 +2.7701297928e+01 +4.6138977373e+00 -4.7421970541e+01 5.5113457968e+01 0.0000000000e+00 0.0000e+00 1.0000e+00
       21  1    1    2  505  502 -1.8139153433e+01 -1.3018244968e+01 +2.1832125509e+01 3.1227316464e+01 0.0000000000e+00 0.0000e+00 1.0000e+00
<mgrwt>
<rscale>  4 0.17944429E+03</rscale>
<asrwt>0</asrwt>
<pdfrwt beam="1">  1       21 0.11400183E-01 0.17944429E+03</pdfrwt>
<pdfrwt beam="2">  1       21 0.12539965E+00 0.17944429E+03</pdfrwt>
<totfact> 0.30670816E+04</totfact>
</mgrwt>
</event>
<event>
 6      1 +2.5168323e+02 1.79545500e+02 7.54677100e-03 1.08788200e-01
       21 -1    0    0  501  502 +0.0000000000e+00 +0.0000000000e+00 +7.0429042602e+02 7.0429042602e+02 0.0000000000e+00 0.0000e+00 -1.0000e+00
       21 -1    0    0  502  503 -0.0000000000e+00 -0.0000000000e+00 -1.6071290652e+02 1.6071290652e+02 0.0000000000e+00 0.0000e+00 -1.0000e+00
        6  1    1    2  501    0 +7.5204469844e+01 -5.3379661018e+01 +1.9761185706e+02 2.7836046154e+02 1.7300000000e+02 0.0000e+00 -1.0000e+00
       -6  1    1    2    0  505 +9.6008010728e+01 +2.7650196158e+01 +3.5428594695e+02 4.0673038204e+02 1.7300000000e+02 0.0000e+00 -1.0000e+00
       21  1    1    2  504  503 -2.7695897941e+01 +2.1343159870e+01 -9.8294952923e+00 3.6320961079e+01 0.0000000000e+00 0.0000e+00 1.0000e+00
       21  1    1    2  505  504 -1.4351658263e+02 +4.3863049899e+00 +1.5092107809e+00 1.4359152788e+02 0.0000000000e+00 0.0000e+00 -1.0000e+00
<mgrwt>
<rscale>  4 0.17945828E+03</rscale>
<asrwt>0</asrwt>
<pdfrwt beam="1">  1       21 0.10835237E+00 0.17954548E+03</pdfrwt>
<pdfrwt beam="2">  1       21 0.24725063E-01 0.17954548E+03</pdfrwt>
<totfact> 0.10576977E+04</totfact>
</mgrwt>
</event>
<event>
 6      1 +2.5168323e+02 1.74339100e+02 7.54677100e-03 1.16871900e-01
       21 -1    0    0  505  502 +0.0000000000e+00 +0.0000000000e+00 +1.6094564315e+03 1.6094564315e+03 0.0000000000e+00 0.0000e+00 -1.0000e+00
       21 -1    0    0  502  503 -0.0000000000e+00 -0.0000000000e+00 -2.4092312803e+02 2.4092312803e+02 0.0000000000e+00 0.0000e+00 -1.0000e+00
        6  1    1    2  501    0 +6.1412223240e+01 +3.8956809068e+01 +1.9842113054e+01 1.8871089949e+02 1.7300000000e+02 0.0000e+00 -1.0000e+00
       -6  1    1    2    0  503 +1.1653320393e+01 -8.1699824246e+00 -1.0351872214e+02 2.0210807585e+02 1.7300000000e+02 0.0000e+00 1.0000e+00
       21  1    1    2  504  501 +2.4792705855e+01 -4.0483758829e+01 +4.1857094426e+02 4.2125437490e+02 0.0000000000e+00 0.0000e+00 -1.0000e+00
       21  1    1    2  505  504 -9.7858249488e+01 +9.6969321851e+00 +1.0336389683e+03 1.0383062093e+03 0.0000000000e+00 0.0000e+00 -1.0000e+00
<mgrwt>
<rscale>  4 0.17433910E+03</rscale>
<asrwt>0</asrwt>
<pdfrwt beam="1">  1       21 0.24760868E+00 0.17433910E+03</pdfrwt>
<pdfrwt beam="2">  1       21 0.37065098E-01 0.17433910E+03</pdfrwt>
<totfact> 0.49459163E+02</totfact>
</mgrwt>
</event>
<event>
 6      1 +2.5168323e+02 1.73986100e+02 7.54677100e-03 1.11476600e-01
       21 -1    0    0  503  502 +0.0000000000e+00 +0.0000000000e+00 +1.5883190279e+02 1.5883190279e+02 0.0000000000e+00 0.0000e+00 1.0000e+00
       21 -1    0    0  505  503 -0.0000000000e+00 -0.0000000000e+00 -2.4828216756e+03 2.4828216756e+03 0.0000000000e+00 0.0000e+00 1.0000e+00
        6  1    1    2  501    0 -7.5426539651e+01 -7.6667515887e+01 -6.7523062695e+02 7.0528892693e+02 1.7300000000e+02 0.0000e+00 1.0000e+00
       -6  1    1    2    0  502 -1.0850000878e+01 -2.6304199724e+01 +6.8120086112e+01 1.8809300778e+02 1.7300000000e+02 0.0000e+00 1.0000e+00
       21  1    1    2  504  501 +5.8233626254e+01 +9.9159910666e+01 -1.9683959359e+02 2.2796856958e+02 0.0000000000e+00 0.0000e+00 1.0000e+00
       21  1    1    2  505  504 +2.8042914275e+01 +3.8118049449e+00 -1.5200396384e+03 1.5203030741e+03 0.0000000000e+00 0.0000e+00 1.0000e+00
<mgrwt>
<rscale>  4 0.17398614E+03</rscale>
<asrwt>0</asrwt>
<pdfrwt beam="1">  1       21 0.24435678E-01 0.17398614E+03</pdfrwt>
<pdfrwt beam="2">  1       21 0.38197256E+00 0.17398614E+03</pdfrwt>
<totfact> 0.18417021E+02</totfact>
</mgrwt>
</event>
<event>
 6      1 +2.5168323e+02 1.88494300e+02 7.54677100e-03 1.16871900e-01
       21 -1    0    0  505  502 +0.0000000000e+00 +0.0000000000e+00 +8.9503840226e+02 8.9503840226e+02 0.0000000000e+00 0.0000e+00 1.0000e+00
       21 -1    0    0  502  503 -0.0000000000e+00 -0.0000000000e+00 -4.4243616511e+02 4.4243616511e+02 0.0000000000e+00 0.0000e+00 -1.0000e+00
        6  1    1    2  501    0 -1.0412619895e+02 -8.2908572516e+01 +1.2180359641e+02 2.4996242278e+02 1.7300000000e+02 0.0000e+00 1.0000e+00
       -6  1    1    2    0  503 +4.5479507024e+01 +5.0321670452e+01 -3.5344243874e+02 3.9931342775e+02 1.7300000000e+02 0.0000e+00 -1.0000e+00
       21  1    1    2  504  501 +2.0900811087e+01 +1.8196566296e+01 +4.1721794904e+02 4.1813726924e+02 0.0000000000e+00 0.0000e+00 1.0000e+00
       21  1    1    2  505  504 +3.7745880837e+01 +1.4390335767e+01 +2.6702313046e+02 2.7006144760e+02 0.0000000000e+00 0.0000e+00 1.0000e+00
<mgrwt>
<rscale>  4 0.18849426E+03</rscale>
<asrwt>0</asrwt>
<pdfrwt beam="1">  1       21 0.13769822E+00 0.18849426E+03</pdfrwt>
<pdfrwt beam="2">  1       21 0.68067102E-01 0.18849426E+03</pdfrwt>
<totfact> 0.73929733E+02</totfact>
</mgrwt>
</event>
<event>
 6      1 +2.5168323e+02 1.88029300e+02 7.54677100e-03 1.11634100e-01
       21 -1    0    0  503  502 +0.0000000000e+00 +0.0000000000e+00 +6.9197787202e+02 6.9197787202e+02 0.0000000000e+00 0.0000e+00 1.0000e+00
       21 -1    0    0  505  503 -0.0000000000e+00 -0.0000000000e+00 -5.6172224706e+02 5.6172224706e+02 0.0000000000e+00 0.0000e+00 -1.0000e+00
        6  1    1    2  501    0 +7.9498771771e+01 +1.0836295585e+02 -1.9504886759e+01 2.1993641245e+02 1.7300000000e+02 0.0000e+00 1.0000e+00
       -6  1    1    2    0  504 -3.8475597018e+01 +3.0458124740e+01 -1.1101020174e+02 2.1132991700e+02 1.7300000000e+02 0.0000e+00 -1.0000e+00
       21  1    1    2  504  502 +2.7841236116e+01 -1.0358780232e+02 +5.3080706797e+02 5.4153643518e+02 0.0000000000e+00 0.0000e+00 1.0000e+00
       21  1    1    2  505  501 -6.8864410869e+01 -3.5233278271e+01 -2.7003635451e+02 2.8089735445e+02 0.0000000000e+00 0.0000e+00 -1.0000e+00
<mgrwt>
<rscale>  4 0.18802931E+03</rscale>
<asrwt>0</asrwt>
<pdfrwt beam="1">  1       21 0.10645813E+00 0.18802931E+03</pdfrwt>
<pdfrwt beam="2">  1       21 0.86418807E-01 0.18802931E+03</pdfrwt>
<totfact> 0.81938317E+02</totfact>
</mgrwt>
</event>
</LesHouchesEvents>
