<LesHouchesEvents version="3.0">
<header>
<!--
#*********************************************************************
#                                                                    *
#                        MadGraph5_aMC@NLO                           *
#                                                                    *
#                           Going Beyond                             *
#                                                                    *
#                   http://madgraph.hep.uiuc.edu                     *
#                   http://madgraph.phys.ucl.ac.be                   *
#                   http://amcatnlo.cern.ch                          *
#                                                                    *
#                     The MadGraph5_aMC@NLO team                     *
#                                                                    *
#....................................................................*
#                                                                    *
# This file contains all the information necessary to reproduce      *
# the events generated:                                              *
#                                                                    *
# 1. software version                                                *
# 2. proc_card          : code generation info including model       *
# 3. param_card         : model primary parameters in the LH format  *
# 4. run_card           : running parameters (collider and cuts)     *
# 5. pythia_card        : present only if pythia has been run        *
# 6. pgs_card           : present only if pgs has been run           *
# 7. delphes_cards      : present only if delphes has been run       *
#                                                                    *
#                                                                    *
#*********************************************************************
-->
<MGVersion>
#3.5.0_lo_vect
</MGVersion>
<MG5ProcCard>
<![CDATA[
#************************************************************
#*                     MadGraph5_aMC@NLO                    *
#*                                                          *
#*                *                       *                 *
#*                  *        * *        *                   *
#*                    * * * * 5 * * * *                     *
#*                  *        * *        *                   *
#*                *                       *                 *
#*                                                          *
#*                                                          *
#*         VERSION 3.5.0_lo_vect         2023-06-09         *
[1;31m#*                                                          *[1;0m
[1;31m#*          WARNING: UNKNOWN DEVELOPMENT VERSION.           *[1;0m
[1;31m#*            WARNING: DO NOT USE FOR PRODUCTION            *[1;0m
[1;31m#*                                                          *[1;0m
#*                                                          *
#*    The MadGraph5_aMC@NLO Development Team - Find us at   *
#*    https://server06.fynu.ucl.ac.be/projects/madgraph     *
#*                                                          *
#************************************************************
#*                                                          *
#*               Command File for MadGraph5_aMC@NLO         *
#*                                                          *
#*     run as ./bin/mg5_aMC  filename                       *
#*                                                          *
#************************************************************
set group_subprocesses Auto
set ignore_six_quark_processes False
set low_mem_multicore_nlo_generation False
set complex_mass_scheme False
set include_lepton_initiated_processes False
set gauge unitary
set loop_optimized_output True
set loop_color_flows False
set max_npoint_for_channel 0
set default_unset_couplings 99
set max_t_for_channel 99
set nlo_mixed_expansion True
set stdout_level DEBUG
set zerowidth_tchannel F
generate g g > t t~ g g
define p = g u c d s u~ c~ d~ s~
define j = g u c d s u~ c~ d~ s~
define l+ = e+ mu+
define l- = e- mu-
define vl = ve vm vt
define vl~ = ve~ vm~ vt~
output madevent CODEGEN_mad_gg_ttgg --hel_recycling=False --vector_siz\
e=16384 --me_exporter=standalone_cudacpp
]]>
</MG5ProcCard>
<MGProcCard>
#*********************************************************************
#                        MadGraph/MadEvent                           *
#                   http://madgraph.hep.uiuc.edu                     *
#                                                                    *
#                          proc_card.dat                             *
#*********************************************************************
#                                                                    *
#            This Files is generated by MADGRAPH 5                   *
#                                                                    *
# WARNING: This Files is generated for MADEVENT (compatibility issue)*
#          This files is NOT a valid MG4 proc_card.dat               *
#          Running this in MG4 will NEVER reproduce the result of MG5*
#                                                                    *
#*********************************************************************
#*********************************************************************
# Process(es) requested : mg2 input                                  *
#*********************************************************************
# Begin PROCESS # This is TAG. Do not modify this line
g g > t t~ g g           #Process
# Be carefull the coupling are here in MG5 convention
          
end_coup           # End the couplings input

done               # this tells MG there are no more procs
# End PROCESS  # This is TAG. Do not modify this line
#*********************************************************************
# Model information                                                  *
#*********************************************************************
# Begin MODEL  # This is TAG. Do not modify this line
sm
# End   MODEL  # This is TAG. Do not modify this line
#*********************************************************************
# Start multiparticle definitions                                    *
#*********************************************************************
# Begin MULTIPARTICLES # This is TAG. Do not modify this line

# End  MULTIPARTICLES # This is TAG. Do not modify this line
</MGProcCard>
<MGRunCard>
<![CDATA[
#*********************************************************************
#                       MadGraph5_aMC@NLO                            *
#                                                                    *
#                     run_card.dat MadEvent                          *
#                                                                    *
#  This file is used to set the parameters of the run.               *
#                                                                    *
#  Some notation/conventions:                                        *
#                                                                    *
#   Lines starting with a '# ' are info or comments                  *
#                                                                    *
#   mind the format:   value    = variable     ! comment             *
#                                                                    *
#   To display more options, you can type the command:               *
#      update to_full                                                *
#*********************************************************************
#                                                                    
#*********************************************************************
# Tag name for the run (one word)                                    *
#*********************************************************************
  tag_1     = run_tag ! name of the run 
#*********************************************************************
# Number of events and rnd seed                                      *
# Warning: Do not generate more than 1M events in a single run       *
#*********************************************************************
  1000 = nevents ! Number of unweighted events requested 
 21 = iseed   ! rnd seed (0=assigned automatically=default))
#*********************************************************************
# Collider type and energy                                           *
# lpp: 0=No PDF, 1=proton, -1=antiproton,                            *
#                2=elastic photon of proton/ion beam                 *
#             +/-3=PDF of electron/positron beam                     *
#             +/-4=PDF of muon/antimuon beam                         *
#*********************************************************************
     1        = lpp1    ! beam 1 type 
     1        = lpp2    ! beam 2 type
     6500.0     = ebeam1  ! beam 1 total energy in GeV
     6500.0     = ebeam2  ! beam 2 total energy in GeV
# To see polarised beam options: type "update beam_pol"

#*********************************************************************
# PDF CHOICE: this automatically fixes alpha_s and its evol.         *
# pdlabel: lhapdf=LHAPDF (installation needed) [1412.7420]           *
#          iww=Improved Weizsaecker-Williams Approx.[hep-ph/9310350] *
#          eva=Effective W/Z/A Approx.       [2111.02442]            *
#          edff=EDFF in gamma-UPC            [eq.(11) in 2207.03012] *
#          chff=ChFF in gamma-UPC            [eq.(13) in 2207.03012] *
#          none=No PDF, same as lhapdf with lppx=0                   *
#*********************************************************************
     nn23lo1    = pdlabel     ! PDF set 
     230000    = lhaid     ! if pdlabel=lhapdf, this is the lhapdf number
# To see heavy ion options: type "update ion_pdf"
#*********************************************************************
# Renormalization and factorization scales                           *
#*********************************************************************
 False = fixed_ren_scale  ! if .true. use fixed ren scale
     False = fixed_fac_scale  ! if .true. use fixed fac scale
 91.188  = scale            ! fixed ren scale
 91.188  = dsqrt_q2fact1    ! fixed fact scale for pdf1
 91.188  = dsqrt_q2fact2    ! fixed fact scale for pdf2
 -1 = dynamical_scale_choice ! Choose one of the preselected dynamical choices
 1.0  = scalefact        ! scale factor for event-by-event scales

 
#*********************************************************************
# Type and output format
#*********************************************************************
  False     = gridpack  !True = setting up the grid pack
  -1.0 = time_of_flight ! threshold (in mm) below which the invariant livetime is not written (-1 means not written)
  average =  event_norm       ! average/sum. Normalization of the weight in the LHEF
# To see MLM/CKKW  merging options: type "update MLM" or "update CKKW"

#*********************************************************************
#
#*********************************************************************
# Phase-Space Optimization strategy (basic options)
#*********************************************************************
   0  = nhel          ! using helicities importance sampling or not.
                             ! 0: sum over helicity, 1: importance sampling
   1  = sde_strategy  ! default integration strategy (hep-ph/2021.00773)
                             ! 1 is old strategy (using amp square)
			     ! 2 is new strategy (using only the denominator)
# To see advanced option for Phase-Space optimization: type "update psoptim"			     
#*********************************************************************
# Customization (custom cuts/scale/bias/...)                         *
# list of files containing fortran function that overwrite default   *
#*********************************************************************
  = custom_fcts ! List of files containing user hook function
#*******************************                                                 
# Parton level cuts definition *
#*******************************
  0.0  = dsqrt_shat ! minimal shat for full process
#                                                                    
#
#*********************************************************************
# BW cutoff (M+/-bwcutoff*Gamma) ! Define on/off-shell for "$" and decay  
#*********************************************************************
  15.0  = bwcutoff      ! (M+/-bwcutoff*Gamma)
#*********************************************************************
# Standard Cuts                                                      *
#*********************************************************************
# Minimum and maximum pt's (for max, -1 means no cut)                *
#*********************************************************************
 20.0  = ptj       ! minimum pt for the jets 
 -1.0  = ptjmax    ! maximum pt for the jets
 {} = pt_min_pdg ! pt cut for other particles (use pdg code). Applied on particle and anti-particle
 {}	= pt_max_pdg ! pt cut for other particles (syntax e.g. {6: 100, 25: 50}) 
#
# For display option for energy cut in the partonic center of mass frame type 'update ecut'
#
#*********************************************************************
# Maximum and minimum absolute rapidity (for max, -1 means no cut)   *
#*********************************************************************
 5.0 = etaj    ! max rap for the jets 
 {} = eta_min_pdg ! rap cut for other particles (use pdg code). Applied on particle and anti-particle
 {} = eta_max_pdg ! rap cut for other particles (syntax e.g. {6: 2.5, 23: 5})
#*********************************************************************
# Minimum and maximum DeltaR distance                                *
#*********************************************************************
 0.4 = drjj    ! min distance between jets 
 -1.0  = drjjmax ! max distance between jets
#*********************************************************************
# Minimum and maximum invariant mass for pairs                       *
#*********************************************************************
 0.0   = mmjj    ! min invariant mass of a jet pair 
 -1.0  = mmjjmax ! max invariant mass of a jet pair
 {} = mxx_min_pdg ! min invariant mass of a pair of particles X/X~ (e.g. {6:250})
 {'default': False} = mxx_only_part_antipart ! if True the invariant mass is applied only 
                       ! to pairs of particle/antiparticle and not to pairs of the same pdg codes.  
#*********************************************************************
# Inclusive cuts                                                     *
#*********************************************************************
 0.0  = ptheavy   ! minimum pt for at least one heavy final state
 0.0  = xptj ! minimum pt for at least one jet  
 #*********************************************************************
 # Control the pt's of the jets sorted by pt                          *
 #*********************************************************************
 0.0   = ptj1min ! minimum pt for the leading jet in pt
 0.0   = ptj2min ! minimum pt for the second jet in pt
 -1.0  = ptj1max ! maximum pt for the leading jet in pt 
 -1.0  = ptj2max ! maximum pt for the second jet in pt
 0   = cutuse  ! reject event if fails any (0) / all (1) jet pt cuts
 #*********************************************************************
 # Control the Ht(k)=Sum of k leading jets                            *
 #*********************************************************************
 0.0   = htjmin ! minimum jet HT=Sum(jet pt)
 -1.0  = htjmax ! maximum jet HT=Sum(jet pt)
 0.0   = ihtmin  !inclusive Ht for all partons (including b)
 -1.0  = ihtmax  !inclusive Ht for all partons (including b)
 #*********************************************************************
 # WBF cuts                                                           *
 #*********************************************************************
 0.0   = xetamin ! minimum rapidity for two jets in the WBF case  
 0.0   = deltaeta ! minimum rapidity for two jets in the WBF case 
#*********************************************************************
# maximal pdg code for quark to be considered as a light jet         *
# (otherwise b cuts are applied)                                     *
#*********************************************************************
 4 = maxjetflavor    ! Maximum jet pdg code
#*********************************************************************
#
#*********************************************************************
# Store info for systematics studies                                 *
# WARNING: Do not use for interference type of computation           *
#*********************************************************************
   True  = use_syst      ! Enable systematics studies
#
systematics = systematics_program ! none, systematics [python], SysCalc [depreceted, C++]
['--mur=0.5,1,2', '--muf=0.5,1,2', '--pdf=errorset'] = systematics_arguments ! see: https://cp3.irmp.ucl.ac.be/projects/madgraph/wiki/Systematics#Systematicspythonmodule

#*********************************************************************
# Options for the cudacpp plugin
#*********************************************************************

# Set cudacpp-specific values of non-cudacpp-specific options
-O3 -ffast-math -fbounds-check = global_flag ! build flags for Fortran code (for a fair comparison to cudacpp)

# New cudacpp-specific options (default values are defined in banner.py)
FORTRAN = cudacpp_backend ! valid backends are FORTRAN, CPP, CUDA
]]>
</MGRunCard>
<slha>
######################################################################
## PARAM_CARD AUTOMATICALY GENERATED BY MG5 FOLLOWING UFO MODEL   ####
######################################################################
##                                                                  ##
##  Width set on Auto will be computed following the information    ##
##        present in the decay.py files of the model.               ##
##        See  arXiv:1402.1178 for more details.                    ##
##                                                                  ##
######################################################################

###################################
## INFORMATION FOR MASS
###################################
Block mass 
    5 4.700000e+00 # MB 
    6 1.730000e+02 # MT 
   15 1.777000e+00 # MTA 
   23 9.118800e+01 # MZ 
   25 1.250000e+02 # MH 
## Dependent parameters, given by model restrictions.
## Those values should be edited following the 
## analytical expression. MG5 ignores those values 
## but they are important for interfacing the output of MG5
## to external program such as Pythia.
  1 0.000000e+00 # d : 0.0 
  2 0.000000e+00 # u : 0.0 
  3 0.000000e+00 # s : 0.0 
  4 0.000000e+00 # c : 0.0 
  11 0.000000e+00 # e- : 0.0 
  12 0.000000e+00 # ve : 0.0 
  13 0.000000e+00 # mu- : 0.0 
  14 0.000000e+00 # vm : 0.0 
  16 0.000000e+00 # vt : 0.0 
  21 0.000000e+00 # g : 0.0 
  22 0.000000e+00 # a : 0.0 
  24 8.041900e+01 # w+ : cmath.sqrt(MZ__exp__2/2. + cmath.sqrt(MZ__exp__4/4. - (aEW*cmath.pi*MZ__exp__2)/(Gf*sqrt__2))) 

###################################
## INFORMATION FOR SMINPUTS
###################################
Block sminputs 
    1 1.325070e+02 # aEWM1 
    2 1.166390e-05 # Gf 
    3 1.180000e-01 # aS (Note that Parameter not used if you use a PDF set) 

###################################
## INFORMATION FOR YUKAWA
###################################
Block yukawa 
    5 4.700000e+00 # ymb 
    6 1.730000e+02 # ymt 
   15 1.777000e+00 # ymtau 

###################################
## INFORMATION FOR DECAY
###################################
DECAY   6 1.491500e+00 # WT 
DECAY  23 2.441404e+00 # WZ 
DECAY  24 2.047600e+00 # WW 
DECAY  25 6.382339e-03 # WH 
## Dependent parameters, given by model restrictions.
## Those values should be edited following the 
## analytical expression. MG5 ignores those values 
## but they are important for interfacing the output of MG5
## to external program such as Pythia.
DECAY  1 0.000000e+00 # d : 0.0 
DECAY  2 0.000000e+00 # u : 0.0 
DECAY  3 0.000000e+00 # s : 0.0 
DECAY  4 0.000000e+00 # c : 0.0 
DECAY  5 0.000000e+00 # b : 0.0 
DECAY  11 0.000000e+00 # e- : 0.0 
DECAY  12 0.000000e+00 # ve : 0.0 
DECAY  13 0.000000e+00 # mu- : 0.0 
DECAY  14 0.000000e+00 # vm : 0.0 
DECAY  15 0.000000e+00 # ta- : 0.0 
DECAY  16 0.000000e+00 # vt : 0.0 
DECAY  21 0.000000e+00 # g : 0.0 
DECAY  22 0.000000e+00 # a : 0.0
</slha>
<MGGenerationInfo>
#  Number of Events        :       1000
#  Integrated weight (pb)  :       251.96620190999997
</MGGenerationInfo>
</header>
<init>
2212 2212 6.500000e+03 6.500000e+03 0 0 247000 247000 -4 1
2.519662e+02 7.018429e-01 2.519662e+02 1
<generator name='MadGraph5_aMC@NLO' version='3.5.0_lo_vect'>please cite 1405.0301 </generator>
</init>
<event>
 6      1 +2.5196620e+02 3.05181500e+02 7.54677100e-03 9.49153200e-02
       21 -1    0    0  505  502 +0.0000000000e+00 +0.0000000000e+00 +7.5256773885e+02 7.5256773885e+02 0.0000000000e+00 0.0000e+00 -1.0000e+00
       21 -1    0    0  504  503 -0.0000000000e+00 -0.0000000000e+00 -3.4889167391e+02 3.4889167391e+02 0.0000000000e+00 0.0000e+00 1.0000e+00
        6  1    1    2  501    0 -8.9745956158e+01 -2.1485029871e+02 +5.4379739976e+00 2.9012679825e+02 1.7300000000e+02 0.0000e+00 1.0000e+00
       -6  1    1    2    0  502 +1.4557232267e+02 +2.2751173085e+02 -5.6687304690e+01 3.2572279521e+02 1.7300000000e+02 0.0000e+00 1.0000e+00
       21  1    1    2  504  501 -4.1970990330e+01 +2.3806198399e+00 +1.4143738538e+01 4.4353993281e+01 0.0000000000e+00 0.0000e+00 1.0000e+00
       21  1    1    2  505  503 -1.3855376186e+01 -1.5042051985e+01 +4.4078165709e+02 4.4125582603e+02 0.0000000000e+00 0.0000e+00 -1.0000e+00
<mgrwt>
<rscale>  4 0.30518150E+03</rscale>
<asrwt>0</asrwt>
<pdfrwt beam="1">  1       21 0.11577965E+00 0.30518150E+03</pdfrwt>
<pdfrwt beam="2">  1       21 0.53675642E-01 0.30518150E+03</pdfrwt>
<totfact> 0.17406389E+03</totfact>
</mgrwt>
</event>
<event>
 6      1 +2.5196620e+02 2.96300900e+02 7.54677100e-03 1.11396600e-01
       21 -1    0    0  503  502 +0.0000000000e+00 +0.0000000000e+00 +6.2500490619e+02 6.2500490619e+02 0.0000000000e+00 0.0000e+00 1.0000e+00
       21 -1    0    0  501  503 -0.0000000000e+00 -0.0000000000e+00 -9.6340429910e+02 9.6340429910e+02 0.0000000000e+00 0.0000e+00 1.0000e+00
        6  1    1    2  501    0 -4.4813722873e+01 -1.0062023260e+02 -7.2523158401e+02 7.5367270842e+02 1.7300000000e+02 0.0000e+00 -1.0000e+00
       -6  1    1    2    0  504 +8.4272602968e+01 -1.1885936750e+02 -6.1801258014e+01 2.3447348751e+02 1.7300000000e+02 0.0000e+00 1.0000e+00
       21  1    1    2  504  505 -5.8303564032e+01 -2.5924582565e+01 -2.3361492496e+01 6.7949605530e+01 0.0000000000e+00 0.0000e+00 1.0000e+00
       21  1    1    2  505  502 +1.8844683937e+01 +2.4540418267e+02 +4.7199494161e+02 5.3231340383e+02 0.0000000000e+00 0.0000e+00 1.0000e+00
<mgrwt>
<rscale>  4 0.27662845E+03</rscale>
<asrwt>0</asrwt>
<pdfrwt beam="1">  1       21 0.96154601E-01 0.29630086E+03</pdfrwt>
<pdfrwt beam="2">  1       21 0.14821605E+00 0.29630086E+03</pdfrwt>
<totfact> 0.25056562E+02</totfact>
</mgrwt>
</event>
<event>
 6      1 +2.5196620e+02 3.16918500e+02 7.54677100e-03 1.16128000e-01
       21 -1    0    0  501  502 +0.0000000000e+00 +0.0000000000e+00 +1.9573697515e+03 1.9573697515e+03 0.0000000000e+00 0.0000e+00 1.0000e+00
       21 -1    0    0  505  503 -0.0000000000e+00 -0.0000000000e+00 -5.1313930359e+02 5.1313930359e+02 0.0000000000e+00 0.0000e+00 1.0000e+00
        6  1    1    2  501    0 -5.4979455396e+01 -1.1593492605e+02 +1.7192584211e+03 1.7326979443e+03 1.7300000000e+02 0.0000e+00 1.0000e+00
       -6  1    1    2    0  503 -1.2832577405e+02 -1.4803695745e+02 -8.7119852307e+01 2.7550193053e+02 1.7300000000e+02 0.0000e+00 1.0000e+00
       21  1    1    2  504  502 -7.1146771631e+01 +4.2234817357e+01 -1.8996055176e+01 8.4891065625e+01 0.0000000000e+00 0.0000e+00 1.0000e+00
       21  1    1    2  505  504 +2.5445200108e+02 +2.2173706615e+02 -1.6891206568e+02 3.7741811468e+02 0.0000000000e+00 0.0000e+00 1.0000e+00
<mgrwt>
<rscale>  4 0.28772984E+03</rscale>
<asrwt>0</asrwt>
<pdfrwt beam="1">  1       21 0.30113380E+00 0.31691845E+03</pdfrwt>
<pdfrwt beam="2">  1       21 0.78944509E-01 0.31691845E+03</pdfrwt>
<totfact> 0.40341512E+01</totfact>
</mgrwt>
</event>
<event>
 6      1 +2.5196620e+02 6.74775400e+02 7.54677100e-03 1.02776600e-01
       21 -1    0    0  504  502 +0.0000000000e+00 +0.0000000000e+00 +2.7156995345e+02 2.7156995345e+02 0.0000000000e+00 0.0000e+00 -1.0000e+00
       21 -1    0    0  501  503 -0.0000000000e+00 -0.0000000000e+00 -1.4508463375e+03 1.4508463375e+03 0.0000000000e+00 0.0000e+00 1.0000e+00
        6  1    1    2  501    0 +3.5698639455e+02 -6.1467428845e+01 -2.3810619301e+02 4.6673449610e+02 1.7300000000e+02 0.0000e+00 -1.0000e+00
       -6  1    1    2    0  502 +1.8270033261e+02 -8.6143028635e+01 -2.6045325930e+02 3.7224311034e+02 1.7300000000e+02 0.0000e+00 -1.0000e+00
       21  1    1    2  504  505 -1.9984982034e+01 +7.7410338610e+00 -1.0463143810e+01 2.3849538581e+01 0.0000000000e+00 0.0000e+00 1.0000e+00
       21  1    1    2  505  503 -5.1970174513e+02 +1.3986942362e+02 -6.7025378789e+02 8.5958914589e+02 0.0000000000e+00 0.0000e+00 1.0000e+00
<mgrwt>
<rscale>  4 0.67477544E+03</rscale>
<asrwt>0</asrwt>
<pdfrwt beam="1">  1       21 0.41779993E-01 0.67477544E+03</pdfrwt>
<pdfrwt beam="2">  1       21 0.22320713E+00 0.67477544E+03</pdfrwt>
<totfact> 0.39416467E+02</totfact>
</mgrwt>
</event>
<event>
 6      1 +2.5196620e+02 2.65463300e+02 7.54677100e-03 1.15679100e-01
       21 -1    0    0  503  502 +0.0000000000e+00 +0.0000000000e+00 +2.0741830292e+02 2.0741830292e+02 0.0000000000e+00 0.0000e+00 1.0000e+00
       21 -1    0    0  505  503 -0.0000000000e+00 -0.0000000000e+00 -7.0460477634e+02 7.0460477634e+02 0.0000000000e+00 0.0000e+00 -1.0000e+00
        6  1    1    2  501    0 +4.2422660660e-02 -1.0441673201e+02 -2.4215050888e+02 3.1538662729e+02 1.7300000000e+02 0.0000e+00 -1.0000e+00
       -6  1    1    2    0  504 +2.3367676447e+01 +2.7178682556e+02 -7.7449532571e+01 3.3217699641e+02 1.7300000000e+02 0.0000e+00 1.0000e+00
       21  1    1    2  504  502 -3.4481869321e+01 -6.9701167656e+00 -3.1320010067e+01 4.7101219413e+01 0.0000000000e+00 0.0000e+00 -1.0000e+00
       21  1    1    2  505  501 +1.1071770213e+01 -1.6039997678e+02 -1.4626642190e+02 2.1735823615e+02 0.0000000000e+00 0.0000e+00 -1.0000e+00
<mgrwt>
<rscale>  4 0.26546329E+03</rscale>
<asrwt>0</asrwt>
<pdfrwt beam="1">  1       21 0.31910508E-01 0.26546329E+03</pdfrwt>
<pdfrwt beam="2">  1       21 0.10840074E+00 0.26546329E+03</pdfrwt>
<totfact> 0.60839489E+03</totfact>
</mgrwt>
</event>
<event>
 6      1 +2.5196620e+02 2.94205900e+02 7.54677100e-03 9.49153200e-02
       21 -1    0    0  505  502 +0.0000000000e+00 +0.0000000000e+00 +3.9361245934e+02 3.9361245934e+02 0.0000000000e+00 0.0000e+00 -1.0000e+00
       21 -1    0    0  504  503 -0.0000000000e+00 -0.0000000000e+00 -1.1499258529e+03 1.1499258529e+03 0.0000000000e+00 0.0000e+00 -1.0000e+00
        6  1    1    2  501    0 +1.7089462819e+01 +3.3445467433e+01 -3.9883476747e+02 4.3635859196e+02 1.7300000000e+02 0.0000e+00 -1.0000e+00
       -6  1    1    2    0  502 +1.3660190724e+02 +1.7666161840e+02 -3.3628596297e+02 4.3918863529e+02 1.7300000000e+02 0.0000e+00 -1.0000e+00
       21  1    1    2  504  501 -3.3236691430e+01 -2.6927778683e+00 -2.9906452850e+02 3.0091779761e+02 0.0000000000e+00 0.0000e+00 -1.0000e+00
       21  1    1    2  505  503 -1.2045467863e+02 -2.0741430796e+02 +2.7787186538e+02 3.6707328740e+02 0.0000000000e+00 0.0000e+00 -1.0000e+00
<mgrwt>
<rscale>  4 0.25872666E+03</rscale>
<asrwt>0</asrwt>
<pdfrwt beam="1">  1       21 0.60555763E-01 0.29420592E+03</pdfrwt>
<pdfrwt beam="2">  1       21 0.17691167E+00 0.29420592E+03</pdfrwt>
<totfact> 0.44006610E+02</totfact>
</mgrwt>
</event>
<event>
 6      1 +2.5196620e+02 1.80819100e+02 7.54677100e-03 1.11396600e-01
       21 -1    0    0  501  502 +0.0000000000e+00 +0.0000000000e+00 +3.3496154873e+02 3.3496154873e+02 0.0000000000e+00 0.0000e+00 1.0000e+00
       21 -1    0    0  505  503 -0.0000000000e+00 -0.0000000000e+00 -3.9932636062e+02 3.9932636062e+02 0.0000000000e+00 0.0000e+00 1.0000e+00
        6  1    1    2  501    0 +8.4346778642e+01 +4.3307109968e+01 -9.5566485106e+01 2.1920729440e+02 1.7300000000e+02 0.0000e+00 1.0000e+00
       -6  1    1    2    0  503 -3.2103871989e+01 +4.6998620217e-01 -1.9799680392e+02 2.6488226412e+02 1.7300000000e+02 0.0000e+00 1.0000e+00
       21  1    1    2  504  502 -6.8887869641e+01 -2.2001947378e+01 +1.7790970041e+02 1.9204553046e+02 0.0000000000e+00 0.0000e+00 1.0000e+00
       21  1    1    2  505  504 +1.6644962988e+01 -2.1775148792e+01 +5.1288776731e+01 5.8152820365e+01 0.0000000000e+00 0.0000e+00 1.0000e+00
<mgrwt>
<rscale>  4 0.18081914E+03</rscale>
<asrwt>0</asrwt>
<pdfrwt beam="1">  1       21 0.51532546E-01 0.18081914E+03</pdfrwt>
<pdfrwt beam="2">  1       21 0.61434825E-01 0.18081914E+03</pdfrwt>
<totfact> 0.88845790E+03</totfact>
</mgrwt>
</event>
<event>
 6      1 +2.5196620e+02 2.36035600e+02 7.54677100e-03 1.14954000e-01
       21 -1    0    0  501  502 +0.0000000000e+00 +0.0000000000e+00 +3.7140871920e+02 3.7140871920e+02 0.0000000000e+00 0.0000e+00 -1.0000e+00
       21 -1    0    0  504  503 -0.0000000000e+00 -0.0000000000e+00 -4.1935397967e+02 4.1935397967e+02 0.0000000000e+00 0.0000e+00 1.0000e+00
        6  1    1    2  501    0 +1.2970397968e+02 +1.2586250801e+02 -2.9211146213e+02 3.8460707167e+02 1.7300000000e+02 0.0000e+00 1.0000e+00
       -6  1    1    2    0  503 -3.1281784286e+01 -9.7506641754e+01 +9.3089811654e+01 2.2154188825e+02 1.7300000000e+02 0.0000e+00 -1.0000e+00
       21  1    1    2  504  505 -1.6215882623e+01 -1.6271238818e+01 +3.0597019580e+01 3.8260758867e+01 0.0000000000e+00 0.0000e+00 -1.0000e+00
       21  1    1    2  505  502 -8.2206312772e+01 -1.2084627435e+01 +1.2047937043e+02 1.4635298009e+02 0.0000000000e+00 0.0000e+00 -1.0000e+00
<mgrwt>
<rscale>  4 0.23603561E+03</rscale>
<asrwt>0</asrwt>
<pdfrwt beam="1">  1       21 0.57139803E-01 0.23603561E+03</pdfrwt>
<pdfrwt beam="2">  1       21 0.64515996E-01 0.23603561E+03</pdfrwt>
<totfact> 0.61814017E+03</totfact>
</mgrwt>
</event>
<event>
 6      1 +2.5196620e+02 2.06584100e+02 7.54677100e-03 1.16558800e-01
       21 -1    0    0  505  502 +0.0000000000e+00 +0.0000000000e+00 +7.0371255730e+02 7.0371255730e+02 0.0000000000e+00 0.0000e+00 -1.0000e+00
       21 -1    0    0  504  503 -0.0000000000e+00 -0.0000000000e+00 -1.5925618004e+02 1.5925618004e+02 0.0000000000e+00 0.0000e+00 -1.0000e+00
        6  1    1    2  501    0 -6.1697816441e+01 -9.8685242733e+01 -2.2708433744e+01 2.0973810014e+02 1.7300000000e+02 0.0000e+00 -1.0000e+00
       -6  1    1    2    0  502 -1.5251742227e+01 +9.1180027257e+01 +3.6259879353e+02 4.1225392428e+02 1.7300000000e+02 0.0000e+00 -1.0000e+00
       21  1    1    2  504  501 +2.1015428779e+01 -1.9066852203e+01 +1.2106180201e+00 2.8401737547e+01 0.0000000000e+00 0.0000e+00 -1.0000e+00
       21  1    1    2  505  503 +5.5934129889e+01 +2.6572067679e+01 +2.0335539946e+02 2.1257497538e+02 0.0000000000e+00 0.0000e+00 -1.0000e+00
<mgrwt>
<rscale>  4 0.20658407E+03</rscale>
<asrwt>0</asrwt>
<pdfrwt beam="1">  1       21 0.10826347E+00 0.20658407E+03</pdfrwt>
<pdfrwt beam="2">  1       21 0.24500951E-01 0.20658407E+03</pdfrwt>
<totfact> 0.10579579E+04</totfact>
</mgrwt>
</event>
<event>
 6      1 +2.5196620e+02 3.81480500e+02 7.54677100e-03 1.11396600e-01
       21 -1    0    0  503  502 +0.0000000000e+00 +0.0000000000e+00 +1.1626219101e+03 1.1626219101e+03 0.0000000000e+00 0.0000e+00 -1.0000e+00
       21 -1    0    0  501  503 -0.0000000000e+00 -0.0000000000e+00 -4.2759522276e+02 4.2759522276e+02 0.0000000000e+00 0.0000e+00 -1.0000e+00
        6  1    1    2  501    0 +1.6370662176e+02 +1.5135748894e+02 -1.9880343773e+02 3.4519668932e+02 1.7300000000e+02 0.0000e+00 1.0000e+00
       -6  1    1    2    0  504 +1.6735583388e+02 +1.6550435196e+02 +1.7207733068e+02 3.3902695082e+02 1.7300000000e+02 0.0000e+00 -1.0000e+00
       21  1    1    2  504  505 -2.6392480427e+02 -3.2658566104e+02 +6.1952205093e+02 7.4841303296e+02 0.0000000000e+00 0.0000e+00 -1.0000e+00
       21  1    1    2  505  502 -6.7137651373e+01 +9.7238201442e+00 +1.4223074347e+02 1.5758045976e+02 0.0000000000e+00 0.0000e+00 -1.0000e+00
<mgrwt>
<rscale>  4 0.35303253E+03</rscale>
<asrwt>0</asrwt>
<pdfrwt beam="1">  1       21 0.17886491E+00 0.38148049E+03</pdfrwt>
<pdfrwt beam="2">  1       21 0.65783881E-01 0.38148049E+03</pdfrwt>
<totfact> 0.33505662E+02</totfact>
</mgrwt>
</event>
<event>
 6      1 +2.5196620e+02 2.86665600e+02 7.54677100e-03 1.15987100e-01
       21 -1    0    0  501  502 +0.0000000000e+00 +0.0000000000e+00 +3.2177655871e+02 3.2177655871e+02 0.0000000000e+00 0.0000e+00 1.0000e+00
       21 -1    0    0  505  503 -0.0000000000e+00 -0.0000000000e+00 -8.9258053646e+02 8.9258053646e+02 0.0000000000e+00 0.0000e+00 1.0000e+00
        6  1    1    2  501    0 -1.9387092125e+02 -7.8092763458e+01 +1.3606701593e+02 3.0352536407e+02 1.7300000000e+02 0.0000e+00 1.0000e+00
       -6  1    1    2    0  503 -5.4931181559e+01 -1.2055695210e+02 -4.4107064873e+02 4.9195907409e+02 1.7300000000e+02 0.0000e+00 -1.0000e+00
       21  1    1    2  504  502 +2.0791366332e+02 +1.8910107306e+02 -2.2154550331e+02 3.5786829598e+02 0.0000000000e+00 0.0000e+00 1.0000e+00
       21  1    1    2  505  504 +4.0888439487e+01 +9.5486424936e+00 -4.4254841646e+01 6.1004361043e+01 0.0000000000e+00 0.0000e+00 1.0000e+00
<mgrwt>
<rscale>  4 0.26766769E+03</rscale>
<asrwt>0</asrwt>
<pdfrwt beam="1">  1       21 0.49504086E-01 0.28666555E+03</pdfrwt>
<pdfrwt beam="2">  1       21 0.13732008E+00 0.28666555E+03</pdfrwt>
<totfact> 0.13546577E+03</totfact>
</mgrwt>
</event>
<event>
 6      1 +2.5196620e+02 1.74329900e+02 7.54677100e-03 9.49153200e-02
       21 -1    0    0  503  502 +0.0000000000e+00 +0.0000000000e+00 +2.2299837820e+03 2.2299837820e+03 0.0000000000e+00 0.0000e+00 -1.0000e+00
       21 -1    0    0  504  503 -0.0000000000e+00 -0.0000000000e+00 -2.6217286790e+02 2.6217286790e+02 0.0000000000e+00 0.0000e+00 -1.0000e+00
        6  1    1    2  501    0 -8.5851118209e+00 +1.6233321595e+01 +3.8080483117e+02 4.1866280503e+02 1.7300000000e+02 0.0000e+00 -1.0000e+00
       -6  1    1    2    0  505 +1.7000069821e+01 -6.5299605008e+01 +2.3839006362e+02 3.0217852872e+02 1.7300000000e+02 0.0000e+00 -1.0000e+00
       21  1    1    2  504  501 -1.5780256972e+01 +1.1229279856e+02 -1.9543633814e+02 2.2595143589e+02 0.0000000000e+00 0.0000e+00 -1.0000e+00
       21  1    1    2  505  502 +7.3652989715e+00 -6.3226515143e+01 +1.5440523574e+03 1.5453638802e+03 0.0000000000e+00 0.0000e+00 -1.0000e+00
<mgrwt>
<rscale>  4 0.17432988E+03</rscale>
<asrwt>0</asrwt>
<pdfrwt beam="1">  1       21 0.34307442E+00 0.17432988E+03</pdfrwt>
<pdfrwt beam="2">  1       21 0.40334289E-01 0.17432988E+03</pdfrwt>
<totfact> 0.11762291E+02</totfact>
</mgrwt>
</event>
<event>
 6      1 +2.5196620e+02 1.93001000e+02 7.54677100e-03 1.13287100e-01
       21 -1    0    0  504  502 +0.0000000000e+00 +0.0000000000e+00 +8.2746522404e+02 8.2746522404e+02 0.0000000000e+00 0.0000e+00 1.0000e+00
       21 -1    0    0  505  503 -0.0000000000e+00 -0.0000000000e+00 -3.2975041776e+02 3.2975041776e+02 0.0000000000e+00 0.0000e+00 -1.0000e+00
        6  1    1    2  501    0 -6.1699506707e+01 +5.8087956524e+01 -2.6656493235e+02 3.2888737127e+02 1.7300000000e+02 0.0000e+00 -1.0000e+00
       -6  1    1    2    0  503 +9.1765103084e+00 -9.5573130155e+01 +6.0829415022e+02 6.3966335266e+02 1.7300000000e+02 0.0000e+00 1.0000e+00
       21  1    1    2  504  501 +2.8200230366e+01 +2.0605575900e+01 +5.5751544426e+00 3.5368419500e+01 0.0000000000e+00 0.0000e+00 -1.0000e+00
       21  1    1    2  505  502 +2.4322766032e+01 +1.6879597731e+01 +1.5041043397e+02 1.5329649837e+02 0.0000000000e+00 0.0000e+00 1.0000e+00
<mgrwt>
<rscale>  4 0.19300095E+03</rscale>
<asrwt>0</asrwt>
<pdfrwt beam="1">  1       21 0.12730234E+00 0.19300095E+03</pdfrwt>
<pdfrwt beam="2">  1       21 0.50730834E-01 0.19300095E+03</pdfrwt>
<totfact> 0.16840939E+03</totfact>
</mgrwt>
</event>
<event>
 6      1 +2.5196620e+02 2.36479500e+02 7.54677100e-03 1.06301000e-01
       21 -1    0    0  501  502 +0.0000000000e+00 +0.0000000000e+00 +2.3008449961e+02 2.3008449961e+02 0.0000000000e+00 0.0000e+00 1.0000e+00
       21 -1    0    0  505  503 -0.0000000000e+00 -0.0000000000e+00 -2.9188420832e+02 2.9188420832e+02 0.0000000000e+00 0.0000e+00 -1.0000e+00
        6  1    1    2  501    0 -1.4134346940e+02 -9.3608814301e+01 +2.5850792290e-01 2.4221819354e+02 1.7300000000e+02 0.0000e+00 -1.0000e+00
       -6  1    1    2    0  504 +1.3489955399e+02 +7.0218087565e+01 -4.5408794683e+01 2.3477527153e+02 1.7300000000e+02 0.0000e+00 -1.0000e+00
       21  1    1    2  504  503 -1.2860345479e+01 +1.7252405973e+01 -8.9270821535e+00 2.3296497451e+01 0.0000000000e+00 0.0000e+00 -1.0000e+00
       21  1    1    2  505  502 +1.9304260893e+01 +6.1383207628e+00 -7.7223397920e+00 2.1678745403e+01 0.0000000000e+00 0.0000e+00 1.0000e+00
<mgrwt>
<rscale>  4 0.23647955E+03</rscale>
<asrwt>0</asrwt>
<pdfrwt beam="1">  1       21 0.35397615E-01 0.23647955E+03</pdfrwt>
<pdfrwt beam="2">  1       21 0.44905263E-01 0.23647955E+03</pdfrwt>
<totfact> 0.35835285E+04</totfact>
</mgrwt>
</event>
<event>
 6      1 +2.5196620e+02 2.06764300e+02 7.54677100e-03 9.49153200e-02
       21 -1    0    0  504  502 +0.0000000000e+00 +0.0000000000e+00 +9.8345332749e+02 9.8345332749e+02 0.0000000000e+00 0.0000e+00 -1.0000e+00
       21 -1    0    0  501  503 -0.0000000000e+00 -0.0000000000e+00 -1.0961683440e+02 1.0961683440e+02 0.0000000000e+00 0.0000e+00 1.0000e+00
        6  1    1    2  501    0 -1.6278272082e+01 -1.1211329536e+02 +1.1099840126e+02 2.3469984708e+02 1.7300000000e+02 0.0000e+00 1.0000e+00
       -6  1    1    2    0  505 +5.8139554045e+01 +1.5043974108e+02 +4.2062965862e+02 4.8256671367e+02 1.7300000000e+02 0.0000e+00 -1.0000e+00
       21  1    1    2  504  503 +2.0565275133e+01 +2.9522753555e+01 +2.1076198745e+01 4.1698077561e+01 0.0000000000e+00 0.0000e+00 -1.0000e+00
       21  1    1    2  505  502 -6.2426557097e+01 -6.7849199273e+01 +3.2113223446e+02 3.3410552357e+02 0.0000000000e+00 0.0000e+00 -1.0000e+00
<mgrwt>
<rscale>  4 0.20676428E+03</rscale>
<asrwt>0</asrwt>
<pdfrwt beam="1">  1       21 0.15130051E+00 0.20676428E+03</pdfrwt>
<pdfrwt beam="2">  1       21 0.16864129E-01 0.20676428E+03</pdfrwt>
<totfact> 0.91516114E+03</totfact>
</mgrwt>
</event>
<event>
 6      1 +2.5196620e+02 2.63949800e+02 7.54677100e-03 1.06301000e-01
       21 -1    0    0  505  502 +0.0000000000e+00 +0.0000000000e+00 +6.4328817754e+02 6.4328817754e+02 0.0000000000e+00 0.0000e+00 1.0000e+00
       21 -1    0    0  504  503 -0.0000000000e+00 -0.0000000000e+00 -7.0128778746e+02 7.0128778746e+02 0.0000000000e+00 0.0000e+00 -1.0000e+00
        6  1    1    2  501    0 -1.1427405441e+02 +4.0885509351e+01 +7.0923057077e+00 2.1144617563e+02 1.7300000000e+02 0.0000e+00 -1.0000e+00
       -6  1    1    2    0  502 +1.9697718079e+02 -9.3345842992e+01 +4.4272324478e+02 5.2292095733e+02 1.7300000000e+02 0.0000e+00 1.0000e+00
       21  1    1    2  504  501 -1.0892071258e+02 +5.6934739473e+01 -5.4822452542e+02 5.6183219600e+02 0.0000000000e+00 0.0000e+00 -1.0000e+00
       21  1    1    2  505  503 +2.6217586209e+01 -4.4744058320e+00 +4.0409365014e+01 4.8376636044e+01 0.0000000000e+00 0.0000e+00 -1.0000e+00
<mgrwt>
<rscale>  4 0.26394985E+03</rscale>
<asrwt>0</asrwt>
<pdfrwt beam="1">  1       21 0.98967412E-01 0.26394985E+03</pdfrwt>
<pdfrwt beam="2">  1       21 0.10789043E+00 0.26394985E+03</pdfrwt>
<totfact> 0.53813057E+02</totfact>
</mgrwt>
</event>
<event>
 6      1 +2.5196620e+02 1.80283100e+02 7.54677100e-03 9.49153200e-02
       21 -1    0    0  504  502 +0.0000000000e+00 +0.0000000000e+00 +2.7003210190e+02 2.7003210190e+02 0.0000000000e+00 0.0000e+00 1.0000e+00
       21 -1    0    0  501  503 -0.0000000000e+00 -0.0000000000e+00 -8.6726078586e+02 8.6726078586e+02 0.0000000000e+00 0.0000e+00 1.0000e+00
        6  1    1    2  501    0 +2.2564392259e+01 +5.8090759487e+01 +5.7511881858e+01 1.9266630398e+02 1.7300000000e+02 0.0000e+00 1.0000e+00
       -6  1    1    2    0  505 +3.8101507246e+00 -2.6097853132e+01 -3.5910393116e+02 3.9947496612e+02 1.7300000000e+02 0.0000e+00 1.0000e+00
       21  1    1    2  504  503 -2.7731787292e+00 -2.8370941529e+01 -4.1876260926e+02 4.1973172832e+02 0.0000000000e+00 0.0000e+00 1.0000e+00
       21  1    1    2  505  502 -2.3601364254e+01 -3.6219648255e+00 +1.2312597460e+02 1.2541988935e+02 0.0000000000e+00 0.0000e+00 1.0000e+00
<mgrwt>
<rscale>  4 0.18028308E+03</rscale>
<asrwt>0</asrwt>
<pdfrwt beam="1">  1       21 0.41543400E-01 0.18028308E+03</pdfrwt>
<pdfrwt beam="2">  1       21 0.13342474E+00 0.18028308E+03</pdfrwt>
<totfact> 0.22844174E+03</totfact>
</mgrwt>
</event>
<event>
 6      1 +2.5196620e+02 1.88044700e+02 7.54677100e-03 1.16321900e-01
       21 -1    0    0  505  502 +0.0000000000e+00 +0.0000000000e+00 +8.9479263667e+02 8.9479263667e+02 0.0000000000e+00 0.0000e+00 1.0000e+00
       21 -1    0    0  504  503 -0.0000000000e+00 -0.0000000000e+00 -8.0812667550e+02 8.0812667550e+02 0.0000000000e+00 0.0000e+00 1.0000e+00
        6  1    1    2  501    0 -7.8493497688e+01 -2.3779701580e+01 +4.8565826183e+02 5.2203414703e+02 1.7300000000e+02 0.0000e+00 -1.0000e+00
       -6  1    1    2    0  502 +6.4138252700e+01 +6.1245811677e+00 +3.6593101051e+02 4.0986062315e+02 1.7300000000e+02 0.0000e+00 1.0000e+00
       21  1    1    2  504  501 +1.9083970183e+01 +3.9249005635e+01 -7.1611555321e+02 7.1744419150e+02 0.0000000000e+00 0.0000e+00 1.0000e+00
       21  1    1    2  505  503 -4.7287251946e+00 -2.1593885223e+01 -4.8807757959e+01 5.3580350484e+01 0.0000000000e+00 0.0000e+00 -1.0000e+00
<mgrwt>
<rscale>  4 0.18804466E+03</rscale>
<asrwt>0</asrwt>
<pdfrwt beam="1">  1       21 0.13766040E+00 0.18804466E+03</pdfrwt>
<pdfrwt beam="2">  1       21 0.12432718E+00 0.18804466E+03</pdfrwt>
<totfact> 0.18179876E+02</totfact>
</mgrwt>
</event>
<event>
 6      1 +2.5196620e+02 2.95957300e+02 7.54677100e-03 1.06301000e-01
       21 -1    0    0  504  502 +0.0000000000e+00 +0.0000000000e+00 +1.1829018443e+02 1.1829018443e+02 0.0000000000e+00 0.0000e+00 1.0000e+00
       21 -1    0    0  501  503 -0.0000000000e+00 -0.0000000000e+00 -9.7075636628e+02 9.7075636628e+02 0.0000000000e+00 0.0000e+00 -1.0000e+00
        6  1    1    2  501    0 +2.1957369340e+02 -8.6010248683e+01 -3.6194989904e+02 4.6534621426e+02 1.7300000000e+02 0.0000e+00 -1.0000e+00
       -6  1    1    2    0  505 -2.3711481267e+02 +6.7736112761e+01 -3.6767785602e+02 4.7531844185e+02 1.7300000000e+02 0.0000e+00 1.0000e+00
       21  1    1    2  504  503 +3.3036978660e+01 -3.0571736164e+00 -1.1668154753e+02 1.2130693222e+02 0.0000000000e+00 0.0000e+00 -1.0000e+00
       21  1    1    2  505  502 -1.5495859395e+01 +2.1331309539e+01 -6.1568792538e+00 2.7074962367e+01 0.0000000000e+00 0.0000e+00 1.0000e+00
<mgrwt>
<rscale>  4 0.29595733E+03</rscale>
<asrwt>0</asrwt>
<pdfrwt beam="1">  1       21 0.18198490E-01 0.29595733E+03</pdfrwt>
<pdfrwt beam="2">  1       21 0.14934713E+00 0.29595733E+03</pdfrwt>
<totfact> 0.77819244E+03</totfact>
</mgrwt>
</event>
<event>
 6      1 +2.5196620e+02 3.68575100e+02 7.54677100e-03 1.02776600e-01
       21 -1    0    0  503  502 +0.0000000000e+00 +0.0000000000e+00 +4.3465388778e+02 4.3465388778e+02 0.0000000000e+00 0.0000e+00 -1.0000e+00
       21 -1    0    0  504  503 -0.0000000000e+00 -0.0000000000e+00 -8.4157923828e+02 8.4157923828e+02 0.0000000000e+00 0.0000e+00 -1.0000e+00
        6  1    1    2  501    0 -1.8084278134e+02 -1.6582721124e+02 -1.1187089164e+02 3.2038550521e+02 1.7300000000e+02 0.0000e+00 -1.0000e+00
       -6  1    1    2    0  502 +2.3583943530e+02 +2.9337909444e+02 +1.8556999404e+02 4.5393474750e+02 1.7300000000e+02 0.0000e+00 -1.0000e+00
       21  1    1    2  504  505 -4.1260125477e+01 -7.0859768319e+01 -3.3836158418e+02 3.4815523315e+02 0.0000000000e+00 0.0000e+00 -1.0000e+00
       21  1    1    2  505  501 -1.3736528479e+01 -5.6692114880e+01 -1.4226286871e+02 1.5375764019e+02 0.0000000000e+00 0.0000e+00 -1.0000e+00
<mgrwt>
<rscale>  4 0.36857514E+03</rscale>
<asrwt>0</asrwt>
<pdfrwt beam="1">  1       21 0.66869830E-01 0.36857514E+03</pdfrwt>
<pdfrwt beam="2">  1       21 0.12947373E+00 0.36857514E+03</pdfrwt>
<totfact> 0.78425989E+02</totfact>
</mgrwt>
</event>
<event>
 6      1 +2.5196620e+02 3.94124300e+02 7.54677100e-03 1.02366900e-01
       21 -1    0    0  503  502 +0.0000000000e+00 +0.0000000000e+00 +4.4660108663e+02 4.4660108663e+02 0.0000000000e+00 0.0000e+00 1.0000e+00
       21 -1    0    0  504  503 -0.0000000000e+00 -0.0000000000e+00 -4.7460822458e+02 4.7460822458e+02 0.0000000000e+00 0.0000e+00 1.0000e+00
        6  1    1    2  501    0 +2.2716604204e+02 +2.4801465964e+02 +1.3138130363e+02 4.0038197886e+02 1.7300000000e+02 0.0000e+00 1.0000e+00
       -6  1    1    2    0  502 -2.7857221093e+02 -2.7462965937e+02 -1.1279341602e+02 4.4235198790e+02 1.7300000000e+02 0.0000e+00 1.0000e+00
       21  1    1    2  504  505 +2.2623245624e+01 -1.7250184381e-01 -2.4601566654e+01 3.3422718042e+01 0.0000000000e+00 0.0000e+00 1.0000e+00
       21  1    1    2  505  501 +2.8782923259e+01 +2.6787501571e+01 -2.1993458901e+01 4.5052626408e+01 0.0000000000e+00 0.0000e+00 -1.0000e+00
<mgrwt>
<rscale>  4 0.39412429E+03</rscale>
<asrwt>0</asrwt>
<pdfrwt beam="1">  1       21 0.68707859E-01 0.39412429E+03</pdfrwt>
<pdfrwt beam="2">  1       21 0.73016650E-01 0.39412429E+03</pdfrwt>
<totfact> 0.28951976E+03</totfact>
</mgrwt>
</event>
<event>
 6      1 +2.5196620e+02 2.04946300e+02 7.54677100e-03 1.02776600e-01
       21 -1    0    0  504  502 +0.0000000000e+00 +0.0000000000e+00 +8.6524562993e+02 8.6524562993e+02 0.0000000000e+00 0.0000e+00 1.0000e+00
       21 -1    0    0  501  503 -0.0000000000e+00 -0.0000000000e+00 -1.2068389669e+02 1.2068389669e+02 0.0000000000e+00 0.0000e+00 1.0000e+00
        6  1    1    2  501    0 -8.9546679473e+00 +9.0651984802e+01 +4.7006494648e+02 5.0910511914e+02 1.7300000000e+02 0.0000e+00 1.0000e+00
       -6  1    1    2    0  502 -2.1587385207e+01 -1.4625749400e+02 +3.1333126861e+02 3.8725024679e+02 1.7300000000e+02 0.0000e+00 1.0000e+00
       21  1    1    2  504  505 +2.1150601583e+01 -8.1256156422e-01 -1.3880956605e+00 2.1211671626e+01 0.0000000000e+00 0.0000e+00 1.0000e+00
       21  1    1    2  505  503 +9.3914515715e+00 +5.6418070761e+01 -3.7446386195e+01 6.8362489057e+01 0.0000000000e+00 0.0000e+00 1.0000e+00
<mgrwt>
<rscale>  4 0.20494628E+03</rscale>
<asrwt>0</asrwt>
<pdfrwt beam="1">  1       21 0.13311471E+00 0.20494628E+03</pdfrwt>
<pdfrwt beam="2">  1       21 0.18566754E-01 0.20494628E+03</pdfrwt>
<totfact> 0.10697065E+04</totfact>
</mgrwt>
</event>
<event>
 6      1 +2.5196620e+02 2.86019700e+02 7.54677100e-03 1.09711200e-01
       21 -1    0    0  505  502 +0.0000000000e+00 +0.0000000000e+00 +6.3882568342e+02 6.3882568342e+02 0.0000000000e+00 0.0000e+00 -1.0000e+00
       21 -1    0    0  504  503 -0.0000000000e+00 -0.0000000000e+00 -8.9971859531e+02 8.9971859531e+02 0.0000000000e+00 0.0000e+00 1.0000e+00
        6  1    1    2  501    0 -2.2936821965e+02 -3.0825152088e+00 -5.4411097657e+02 6.1530889552e+02 1.7300000000e+02 0.0000e+00 1.0000e+00
       -6  1    1    2    0  503 +2.4868100064e+00 -5.9296289357e+01 -2.5139395859e+02 3.1088608295e+02 1.7300000000e+02 0.0000e+00 1.0000e+00
       21  1    1    2  504  502 +6.2147091637e+01 +7.9790661820e+00 +1.4841231653e+01 6.4390905050e+01 0.0000000000e+00 0.0000e+00 -1.0000e+00
       21  1    1    2  505  501 +1.6473431800e+02 +5.4399738384e+01 +5.1977079162e+02 5.4795839521e+02 0.0000000000e+00 0.0000e+00 -1.0000e+00
<mgrwt>
<rscale>  4 0.25574838E+03</rscale>
<asrwt>0</asrwt>
<pdfrwt beam="1">  1       21 0.98280875E-01 0.28601974E+03</pdfrwt>
<pdfrwt beam="2">  1       21 0.13841825E+00 0.28601974E+03</pdfrwt>
<totfact> 0.28724494E+02</totfact>
</mgrwt>
</event>
<event>
 6      1 +2.5196620e+02 2.56346900e+02 7.54677100e-03 9.49153200e-02
       21 -1    0    0  505  502 +0.0000000000e+00 +0.0000000000e+00 +6.6400544988e+02 6.6400544988e+02 0.0000000000e+00 0.0000e+00 -1.0000e+00
       21 -1    0    0  504  503 -0.0000000000e+00 -0.0000000000e+00 -7.9183337781e+02 7.9183337781e+02 0.0000000000e+00 0.0000e+00 -1.0000e+00
        6  1    1    2  501    0 -1.1658782474e+02 +1.2807821818e+01 +3.9887503561e+02 4.5031883728e+02 1.7300000000e+02 0.0000e+00 -1.0000e+00
       -6  1    1    2    0  502 -7.8227516052e+01 -1.6367317194e+02 -5.3568056832e+02 5.9143141847e+02 1.7300000000e+02 0.0000e+00 -1.0000e+00
       21  1    1    2  504  501 +1.6610746440e+02 +1.4099349726e+02 -1.4201447362e+02 2.6007492519e+02 0.0000000000e+00 0.0000e+00 -1.0000e+00
       21  1    1    2  505  503 +2.8707876389e+01 +9.8718528631e+00 +1.5099207840e+02 1.5401364675e+02 0.0000000000e+00 0.0000e+00 -1.0000e+00
<mgrwt>
<rscale>  4 0.24014196E+03</rscale>
<asrwt>0</asrwt>
<pdfrwt beam="1">  1       21 0.10215468E+00 0.25634694E+03</pdfrwt>
<pdfrwt beam="2">  1       21 0.12182052E+00 0.25634694E+03</pdfrwt>
<totfact> 0.37204799E+02</totfact>
</mgrwt>
</event>
<event>
 6      1 +2.5196620e+02 1.86129300e+02 7.54677100e-03 9.28652600e-02
       21 -1    0    0  503  502 +0.0000000000e+00 +0.0000000000e+00 +7.8825011610e+02 7.8825011610e+02 0.0000000000e+00 0.0000e+00 1.0000e+00
       21 -1    0    0  504  503 -0.0000000000e+00 -0.0000000000e+00 -6.3912502169e+02 6.3912502169e+02 0.0000000000e+00 0.0000e+00 -1.0000e+00
        6  1    1    2  501    0 -8.3060587184e+01 +1.1284697368e+02 +3.6044006899e+02 4.2365026135e+02 1.7300000000e+02 0.0000e+00 1.0000e+00
       -6  1    1    2    0  502 +2.2074751658e+01 -1.2144839480e+01 +3.6129812698e+02 4.0137280470e+02 1.7300000000e+02 0.0000e+00 -1.0000e+00
       21  1    1    2  504  505 +1.7841087905e+01 -1.5980540748e+01 -4.3170428388e+02 4.3236821208e+02 0.0000000000e+00 0.0000e+00 -1.0000e+00
       21  1    1    2  505  501 +4.3144747621e+01 -8.4721593450e+01 -1.4090881768e+02 1.6998385965e+02 0.0000000000e+00 0.0000e+00 -1.0000e+00
<mgrwt>
<rscale>  4 0.18612933E+03</rscale>
<asrwt>0</asrwt>
<pdfrwt beam="1">  1       21 0.12126925E+00 0.18612933E+03</pdfrwt>
<pdfrwt beam="2">  1       21 0.98326926E-01 0.18612933E+03</pdfrwt>
<totfact> 0.44289896E+02</totfact>
</mgrwt>
</event>
<event>
 6      1 +2.5196620e+02 1.85650100e+02 7.54677100e-03 1.13287100e-01
       21 -1    0    0  505  502 +0.0000000000e+00 +0.0000000000e+00 +6.0971410693e+01 6.0971410693e+01 0.0000000000e+00 0.0000e+00 1.0000e+00
       21 -1    0    0  502  503 -0.0000000000e+00 -0.0000000000e+00 -1.8413104041e+03 1.8413104041e+03 0.0000000000e+00 0.0000e+00 1.0000e+00
        6  1    1    2  501    0 -1.1825012848e+01 +4.4493258633e+01 -1.2279219534e+03 1.2409032213e+03 1.7300000000e+02 0.0000e+00 1.0000e+00
       -6  1    1    2    0  503 -8.4986797908e+01 -4.1376389211e+01 -3.3029601460e+02 3.8465467456e+02 1.7300000000e+02 0.0000e+00 1.0000e+00
       21  1    1    2  504  501 +1.4091537743e+01 +4.2357449708e+01 -1.5393498921e+02 1.6027696617e+02 0.0000000000e+00 0.0000e+00 -1.0000e+00
       21  1    1    2  505  504 +8.2720273013e+01 -4.5474319130e+01 -6.8186036128e+01 1.1644695269e+02 0.0000000000e+00 0.0000e+00 1.0000e+00
<mgrwt>
<rscale>  4 0.18565015E+03</rscale>
<asrwt>0</asrwt>
<pdfrwt beam="1">  1       21 0.93802176E-02 0.18565015E+03</pdfrwt>
<pdfrwt beam="2">  1       21 0.28327851E+00 0.18565015E+03</pdfrwt>
<totfact> 0.39020189E+03</totfact>
</mgrwt>
</event>
<event>
 6      1 +2.5196620e+02 2.48337000e+02 7.54677100e-03 1.16128000e-01
       21 -1    0    0  501  502 +0.0000000000e+00 +0.0000000000e+00 +3.4755675124e+02 3.4755675124e+02 0.0000000000e+00 0.0000e+00 1.0000e+00
       21 -1    0    0  505  503 -0.0000000000e+00 -0.0000000000e+00 -4.3680493347e+02 4.3680493347e+02 0.0000000000e+00 0.0000e+00 1.0000e+00
        6  1    1    2  501    0 +1.2542135968e+02 -1.2446238338e+02 +1.5323398120e+02 2.9091417177e+02 1.7300000000e+02 0.0000e+00 1.0000e+00
       -6  1    1    2    0  503 -1.7184779020e+02 +7.8248534925e+01 -1.9840750757e+01 2.5686017910e+02 1.7300000000e+02 0.0000e+00 1.0000e+00
       21  1    1    2  504  502 +3.4286993858e+01 +5.6492286329e+00 -6.9542038919e+01 7.7740638723e+01 0.0000000000e+00 0.0000e+00 -1.0000e+00
       21  1    1    2  505  504 +1.2139436662e+01 +4.0564619818e+01 -1.5309937376e+02 1.5884669511e+02 0.0000000000e+00 0.0000e+00 1.0000e+00
<mgrwt>
<rscale>  4 0.24833703E+03</rscale>
<asrwt>0</asrwt>
<pdfrwt beam="1">  1       21 0.53470269E-01 0.24833703E+03</pdfrwt>
<pdfrwt beam="2">  1       21 0.67200759E-01 0.24833703E+03</pdfrwt>
<totfact> 0.64619029E+03</totfact>
</mgrwt>
</event>
<event>
 6      1 +2.5196620e+02 1.74107500e+02 7.54677100e-03 1.02776600e-01
       21 -1    0    0  505  502 +0.0000000000e+00 +0.0000000000e+00 +1.6286169448e+02 1.6286169448e+02 0.0000000000e+00 0.0000e+00 1.0000e+00
       21 -1    0    0  501  503 -0.0000000000e+00 -0.0000000000e+00 -3.9457021079e+02 3.9457021079e+02 0.0000000000e+00 0.0000e+00 1.0000e+00
        6  1    1    2  501    0 -3.5960422482e+01 -2.5596810238e+01 -3.1903859408e+01 1.8137035294e+02 1.7300000000e+02 0.0000e+00 1.0000e+00
       -6  1    1    2    0  502 -1.4137471033e+01 -6.2024917951e+01 -5.6582673685e+01 1.9281482696e+02 1.7300000000e+02 0.0000e+00 1.0000e+00
       21  1    1    2  504  503 +5.6752272489e+01 +5.9322390325e+01 -1.2281602802e+02 1.4772861322e+02 0.0000000000e+00 0.0000e+00 1.0000e+00
       21  1    1    2  505  504 -6.6543789738e+00 +2.8299337864e+01 -2.0405955198e+01 3.5518112149e+01 0.0000000000e+00 0.0000e+00 1.0000e+00
<mgrwt>
<rscale>  4 0.17410747E+03</rscale>
<asrwt>0</asrwt>
<pdfrwt beam="1">  1       21 0.25055646E-01 0.17410747E+03</pdfrwt>
<pdfrwt beam="2">  1       21 0.60703108E-01 0.17410747E+03</pdfrwt>
<totfact> 0.38482176E+04</totfact>
</mgrwt>
</event>
<event>
 6      1 +2.5196620e+02 1.92444200e+02 7.54677100e-03 9.49153200e-02
       21 -1    0    0  505  502 +0.0000000000e+00 +0.0000000000e+00 +8.2363693208e+01 8.2363693208e+01 0.0000000000e+00 0.0000e+00 -1.0000e+00
       21 -1    0    0  501  503 -0.0000000000e+00 -0.0000000000e+00 -2.0534510260e+03 2.0534510260e+03 0.0000000000e+00 0.0000e+00 1.0000e+00
        6  1    1    2  501    0 +7.1792302847e+01 +1.1199461871e+01 -1.3714203463e+03 1.3841973591e+03 1.7300000000e+02 0.0000e+00 1.0000e+00
       -6  1    1    2    0  502 -1.0011153310e+02 +3.6650331705e+01 -5.4888225240e+02 5.8529163062e+02 1.7300000000e+02 0.0000e+00 1.0000e+00
       21  1    1    2  504  503 +8.8816947711e+00 -1.8420561950e+01 -1.0206180237e+02 1.0409040834e+02 0.0000000000e+00 0.0000e+00 -1.0000e+00
       21  1    1    2  505  504 +1.9437535479e+01 -2.9429231626e+01 +5.1277068314e+01 6.2235321117e+01 0.0000000000e+00 0.0000e+00 -1.0000e+00
<mgrwt>
<rscale>  4 0.19244417E+03</rscale>
<asrwt>0</asrwt>
<pdfrwt beam="1">  1       21 0.12671338E-01 0.19244417E+03</pdfrwt>
<pdfrwt beam="2">  1       21 0.31591553E+00 0.19244417E+03</pdfrwt>
<totfact> 0.14712776E+03</totfact>
</mgrwt>
</event>
<event>
 6      1 +2.5196620e+02 2.09323300e+02 7.54677100e-03 1.13287100e-01
       21 -1    0    0  505  502 +0.0000000000e+00 +0.0000000000e+00 +1.2096556620e+03 1.2096556620e+03 0.0000000000e+00 0.0000e+00 1.0000e+00
       21 -1    0    0  502  503 -0.0000000000e+00 -0.0000000000e+00 -1.6252463682e+02 1.6252463682e+02 0.0000000000e+00 0.0000e+00 -1.0000e+00
        6  1    1    2  501    0 -9.7208601432e+00 -6.9022039469e+01 +3.3197077846e+02 3.8077832764e+02 1.7300000000e+02 0.0000e+00 1.0000e+00
       -6  1    1    2    0  503 -2.5768880019e+01 +2.1916486206e+02 +7.1509567634e+01 2.8937845497e+02 1.7300000000e+02 0.0000e+00 -1.0000e+00
       21  1    1    2  504  501 +1.7714184036e+01 -1.0699396996e+02 +7.5932417327e+01 1.3239046010e+02 0.0000000000e+00 0.0000e+00 1.0000e+00
       21  1    1    2  505  504 +1.7775556126e+01 -4.3148852630e+01 +5.6771826172e+02 5.6963305607e+02 0.0000000000e+00 0.0000e+00 1.0000e+00
<mgrwt>
<rscale>  4 0.20932330E+03</rscale>
<asrwt>0</asrwt>
<pdfrwt beam="1">  1       21 0.18610087E+00 0.20932330E+03</pdfrwt>
<pdfrwt beam="2">  1       21 0.25003791E-01 0.20932330E+03</pdfrwt>
<totfact> 0.24665289E+03</totfact>
</mgrwt>
</event>
<event>
 6      1 +2.5196620e+02 2.08662900e+02 7.54677100e-03 9.49153200e-02
       21 -1    0    0  505  502 +0.0000000000e+00 +0.0000000000e+00 +2.5502224196e+02 2.5502224196e+02 0.0000000000e+00 0.0000e+00 1.0000e+00
       21 -1    0    0  501  503 -0.0000000000e+00 -0.0000000000e+00 -2.1592193840e+03 2.1592193840e+03 0.0000000000e+00 0.0000e+00 1.0000e+00
        6  1    1    2  501    0 -1.3722023211e+02 +4.8295734880e+01 -1.6482079255e+03 1.6636346462e+03 1.7300000000e+02 0.0000e+00 1.0000e+00
       -6  1    1    2    0  502 +4.7838434044e+01 -4.3386360588e+01 -1.9274694587e+02 2.6692934871e+02 1.7300000000e+02 0.0000e+00 1.0000e+00
       21  1    1    2  504  503 +1.6739067317e+01 -1.4517644407e+01 -2.6660097818e+02 2.6752016735e+02 0.0000000000e+00 0.0000e+00 -1.0000e+00
       21  1    1    2  505  504 +7.2642730753e+01 +9.6082701148e+00 +2.0335870756e+02 2.1615746373e+02 0.0000000000e+00 0.0000e+00 1.0000e+00
<mgrwt>
<rscale>  4 0.20866290E+03</rscale>
<asrwt>0</asrwt>
<pdfrwt beam="1">  1       21 0.39234190E-01 0.20866290E+03</pdfrwt>
<pdfrwt beam="2">  1       21 0.33218760E+00 0.20866290E+03</pdfrwt>
<totfact> 0.13574280E+02</totfact>
</mgrwt>
</event>
<event>
 6      1 +2.5196620e+02 3.11058000e+02 7.54677100e-03 1.11396600e-01
       21 -1    0    0  505  502 +0.0000000000e+00 +0.0000000000e+00 +2.2989235403e+02 2.2989235403e+02 0.0000000000e+00 0.0000e+00 1.0000e+00
       21 -1    0    0  501  503 -0.0000000000e+00 -0.0000000000e+00 -8.3605201803e+02 8.3605201803e+02 0.0000000000e+00 0.0000e+00 1.0000e+00
        6  1    1    2  501    0 +7.6892879317e+01 -1.7983545511e+02 -1.2176985855e+02 2.8811491502e+02 1.7300000000e+02 0.0000e+00 1.0000e+00
       -6  1    1    2    0  502 -2.7338747277e+02 -1.8003220016e+01 -2.9022815618e+02 4.3500138946e+02 1.7300000000e+02 0.0000e+00 1.0000e+00
       21  1    1    2  504  503 +1.6172353268e+02 +1.5783292268e+02 -1.7722405946e+02 2.8718304225e+02 0.0000000000e+00 0.0000e+00 1.0000e+00
       21  1    1    2  505  504 +3.4771060772e+01 +4.0005752446e+01 -1.6937589815e+01 5.5645025337e+01 0.0000000000e+00 0.0000e+00 1.0000e+00
<mgrwt>
<rscale>  4 0.29774194E+03</rscale>
<asrwt>0</asrwt>
<pdfrwt beam="1">  1       21 0.35368055E-01 0.31105802E+03</pdfrwt>
<pdfrwt beam="2">  1       21 0.12862339E+00 0.31105802E+03</pdfrwt>
<totfact> 0.31529003E+03</totfact>
</mgrwt>
</event>
<event>
 6      1 +2.5196620e+02 2.53048000e+02 7.54677100e-03 1.16558800e-01
       21 -1    0    0  503  502 +0.0000000000e+00 +0.0000000000e+00 +1.1972761964e+03 1.1972761964e+03 0.0000000000e+00 0.0000e+00 -1.0000e+00
       21 -1    0    0  504  503 -0.0000000000e+00 -0.0000000000e+00 -1.3052714110e+02 1.3052714110e+02 0.0000000000e+00 0.0000e+00 1.0000e+00
        6  1    1    2  501    0 -1.1825514686e+02 +8.4167850702e+01 +4.8941790564e+02 5.3900593059e+02 1.7300000000e+02 0.0000e+00 -1.0000e+00
       -6  1    1    2    0  505 +1.2522039198e+02 -2.3871799477e+02 +2.4003547213e+02 4.0026548125e+02 1.7300000000e+02 0.0000e+00 1.0000e+00
       21  1    1    2  504  501 +1.8405745945e+01 +1.2885497552e+02 +1.5366029910e+02 2.0137989900e+02 0.0000000000e+00 0.0000e+00 1.0000e+00
       21  1    1    2  505  502 -2.5370991069e+01 +2.5695168550e+01 +1.8363537844e+02 1.8715202668e+02 0.0000000000e+00 0.0000e+00 -1.0000e+00
<mgrwt>
<rscale>  4 0.25304802E+03</rscale>
<asrwt>0</asrwt>
<pdfrwt beam="1">  1       21 0.18419633E+00 0.25304802E+03</pdfrwt>
<pdfrwt beam="2">  1       21 0.20081099E-01 0.25304802E+03</pdfrwt>
<totfact> 0.37143778E+03</totfact>
</mgrwt>
</event>
<event>
 6      1 +2.5196620e+02 1.82024300e+02 7.54677100e-03 1.06301000e-01
       21 -1    0    0  503  502 +0.0000000000e+00 +0.0000000000e+00 +5.7985889378e+02 5.7985889378e+02 0.0000000000e+00 0.0000e+00 1.0000e+00
       21 -1    0    0  504  503 -0.0000000000e+00 -0.0000000000e+00 -1.4985203099e+02 1.4985203099e+02 0.0000000000e+00 0.0000e+00 1.0000e+00
        6  1    1    2  501    0 -2.7212237433e+01 -7.6819152948e+01 +2.1806926278e+02 2.9004291319e+02 1.7300000000e+02 0.0000e+00 -1.0000e+00
       -6  1    1    2    0  505 +6.7495104685e+00 +3.2684848593e+01 +1.8254945842e+02 2.5370683867e+02 1.7300000000e+02 0.0000e+00 1.0000e+00
       21  1    1    2  504  501 +1.3611534636e+01 +1.5561234554e+01 -7.4854234158e+01 7.7656823701e+01 0.0000000000e+00 0.0000e+00 1.0000e+00
       21  1    1    2  505  502 +6.8511923285e+00 +2.8573069802e+01 +1.0424237576e+02 1.0830434921e+02 0.0000000000e+00 0.0000e+00 1.0000e+00
<mgrwt>
<rscale>  4 0.18202427E+03</rscale>
<asrwt>0</asrwt>
<pdfrwt beam="1">  1       21 0.89209059E-01 0.18202427E+03</pdfrwt>
<pdfrwt beam="2">  1       21 0.23054159E-01 0.18202427E+03</pdfrwt>
<totfact> 0.19070486E+04</totfact>
</mgrwt>
</event>
<event>
 6      1 +2.5196620e+02 1.80152000e+02 7.54677100e-03 9.49153200e-02
       21 -1    0    0  505  502 +0.0000000000e+00 +0.0000000000e+00 +1.0605700241e+03 1.0605700241e+03 0.0000000000e+00 0.0000e+00 -1.0000e+00
       21 -1    0    0  501  503 -0.0000000000e+00 -0.0000000000e+00 -7.2715363853e+01 7.2715363853e+01 0.0000000000e+00 0.0000e+00 -1.0000e+00
        6  1    1    2  501    0 +3.2660345545e+01 -1.9956001610e-01 +4.0511681671e+02 4.4171865840e+02 1.7300000000e+02 0.0000e+00 -1.0000e+00
       -6  1    1    2    0  502 -6.1775551540e+01 +4.4366535884e+01 +1.2950660666e+02 2.2909729253e+02 1.7300000000e+02 0.0000e+00 -1.0000e+00
       21  1    1    2  504  503 +1.9969417575e+01 -1.7038721066e+01 +3.7619662868e+01 4.5873027894e+01 0.0000000000e+00 0.0000e+00 -1.0000e+00
       21  1    1    2  505  504 +9.1457884196e+00 -2.7128254802e+01 +4.1561157403e+02 4.1659640916e+02 0.0000000000e+00 0.0000e+00 -1.0000e+00
<mgrwt>
<rscale>  4 0.18015200E+03</rscale>
<asrwt>0</asrwt>
<pdfrwt beam="1">  1       21 0.16316461E+00 0.18015200E+03</pdfrwt>
<pdfrwt beam="2">  1       21 0.11186980E-01 0.18015200E+03</pdfrwt>
<totfact> 0.16020992E+04</totfact>
</mgrwt>
</event>
<event>
 6      1 +2.5196620e+02 2.78491300e+02 7.54677100e-03 1.16321900e-01
       21 -1    0    0  503  502 +0.0000000000e+00 +0.0000000000e+00 +5.5066741428e+02 5.5066741428e+02 0.0000000000e+00 0.0000e+00 -1.0000e+00
       21 -1    0    0  505  503 -0.0000000000e+00 -0.0000000000e+00 -6.9292209265e+02 6.9292209265e+02 0.0000000000e+00 0.0000e+00 1.0000e+00
        6  1    1    2  501    0 -1.7728520587e+02 +1.2716929454e+01 +1.4946346577e+02 2.8958607031e+02 1.7300000000e+02 0.0000e+00 -1.0000e+00
       -6  1    1    2    0  502 +2.6269940287e+02 +2.2276228902e+01 +2.5007017210e+02 4.0245657855e+02 1.7300000000e+02 0.0000e+00 -1.0000e+00
       21  1    1    2  504  501 -6.8308940870e+01 -2.4570089576e+01 -2.8943322240e+02 2.9839804110e+02 0.0000000000e+00 0.0000e+00 1.0000e+00
       21  1    1    2  505  504 -1.7105256129e+01 -1.0423068781e+01 -2.5235509383e+02 2.5314881697e+02 0.0000000000e+00 0.0000e+00 1.0000e+00
<mgrwt>
<rscale>  4 0.27849125E+03</rscale>
<asrwt>0</asrwt>
<pdfrwt beam="1">  1       21 0.84718064E-01 0.27849125E+03</pdfrwt>
<pdfrwt beam="2">  1       21 0.10660340E+00 0.27849125E+03</pdfrwt>
<totfact> 0.78903440E+02</totfact>
</mgrwt>
</event>
<event>
 6      1 +2.5196620e+02 2.14360200e+02 7.54677100e-03 1.14954000e-01
       21 -1    0    0  505  502 +0.0000000000e+00 +0.0000000000e+00 +4.8589860899e+02 4.8589860899e+02 0.0000000000e+00 0.0000e+00 1.0000e+00
       21 -1    0    0  502  503 -0.0000000000e+00 -0.0000000000e+00 -1.5900075590e+02 1.5900075590e+02 0.0000000000e+00 0.0000e+00 1.0000e+00
        6  1    1    2  501    0 -1.4204510091e+02 +2.5292800364e+01 +1.7138166159e+02 2.8304983726e+02 1.7300000000e+02 0.0000e+00 1.0000e+00
       -6  1    1    2    0  503 +1.1665902587e+02 +3.8910400435e+01 +2.8003912653e+01 2.1409476103e+02 1.7300000000e+02 0.0000e+00 1.0000e+00
       21  1    1    2  504  501 +2.6425843584e+01 -4.3933205919e+01 +7.0003961877e+01 8.6769847700e+01 0.0000000000e+00 0.0000e+00 1.0000e+00
       21  1    1    2  505  504 -1.0397685374e+00 -2.0269994881e+01 +5.7508316969e+01 6.0984918887e+01 0.0000000000e+00 0.0000e+00 1.0000e+00
<mgrwt>
<rscale>  4 0.21436018E+03</rscale>
<asrwt>0</asrwt>
<pdfrwt beam="1">  1       21 0.74753631E-01 0.21436018E+03</pdfrwt>
<pdfrwt beam="2">  1       21 0.24461655E-01 0.21436018E+03</pdfrwt>
<totfact> 0.24977561E+04</totfact>
</mgrwt>
</event>
<event>
 6      1 +2.5196620e+02 2.14850100e+02 7.54677100e-03 1.11396600e-01
       21 -1    0    0  504  502 +0.0000000000e+00 +0.0000000000e+00 +6.8191311048e+02 6.8191311048e+02 0.0000000000e+00 0.0000e+00 1.0000e+00
       21 -1    0    0  501  503 -0.0000000000e+00 -0.0000000000e+00 -2.4908880523e+02 2.4908880523e+02 0.0000000000e+00 0.0000e+00 1.0000e+00
        6  1    1    2  501    0 -8.1350108160e+01 -9.7744730643e+01 -1.4587185272e+02 2.5957555717e+02 1.7300000000e+02 0.0000e+00 1.0000e+00
       -6  1    1    2    0  502 +8.6438255683e+01 +9.5324278433e+01 +2.4542295939e+02 3.2667984189e+02 1.7300000000e+02 0.0000e+00 1.0000e+00
       21  1    1    2  504  505 +2.1338810060e+01 +3.7275661965e+01 +1.9689837359e+02 2.0152863150e+02 0.0000000000e+00 0.0000e+00 1.0000e+00
       21  1    1    2  505  503 -2.6426957583e+01 -3.4855209755e+01 +1.3637482499e+02 1.4321788515e+02 0.0000000000e+00 0.0000e+00 1.0000e+00
<mgrwt>
<rscale>  4 0.21485006E+03</rscale>
<asrwt>0</asrwt>
<pdfrwt beam="1">  1       21 0.10490971E+00 0.21485006E+03</pdfrwt>
<pdfrwt beam="2">  1       21 0.38321355E-01 0.21485006E+03</pdfrwt>
<totfact> 0.47248704E+03</totfact>
</mgrwt>
</event>
<event>
 6      1 +2.5196620e+02 1.93641200e+02 7.54677100e-03 9.49153200e-02
       21 -1    0    0  505  502 +0.0000000000e+00 +0.0000000000e+00 +1.0586011652e+03 1.0586011652e+03 0.0000000000e+00 0.0000e+00 1.0000e+00
       21 -1    0    0  504  503 -0.0000000000e+00 -0.0000000000e+00 -1.4848648502e+02 1.4848648502e+02 0.0000000000e+00 0.0000e+00 1.0000e+00
        6  1    1    2  501    0 -9.5801501199e+00 +3.7746611441e+00 +4.0223485597e+02 4.3798162827e+02 1.7300000000e+02 0.0000e+00 1.0000e+00
       -6  1    1    2    0  502 +1.8392903761e+01 -1.2533557497e+02 +1.0710663201e+02 2.3968340761e+02 1.7300000000e+02 0.0000e+00 -1.0000e+00
       21  1    1    2  504  501 +5.1311506845e+01 +2.4439915792e+01 -4.2946708933e+01 7.1236226927e+01 0.0000000000e+00 0.0000e+00 1.0000e+00
       21  1    1    2  505  503 -6.0124260486e+01 +9.7120998031e+01 +4.4371990112e+02 4.5818638741e+02 0.0000000000e+00 0.0000e+00 1.0000e+00
<mgrwt>
<rscale>  4 0.19364122E+03</rscale>
<asrwt>0</asrwt>
<pdfrwt beam="1">  1       21 0.16286171E+00 0.19364122E+03</pdfrwt>
<pdfrwt beam="2">  1       21 0.22844075E-01 0.19364122E+03</pdfrwt>
<totfact> 0.43096348E+03</totfact>
</mgrwt>
</event>
<event>
 6      1 +2.5196620e+02 2.30270700e+02 7.54677100e-03 1.06301000e-01
       21 -1    0    0  505  502 +0.0000000000e+00 +0.0000000000e+00 +6.9529444545e+02 6.9529444545e+02 0.0000000000e+00 0.0000e+00 -1.0000e+00
       21 -1    0    0  501  503 -0.0000000000e+00 -0.0000000000e+00 -2.3422488394e+02 2.3422488394e+02 0.0000000000e+00 0.0000e+00 -1.0000e+00
        6  1    1    2  501    0 +3.2647100502e+01 +1.2856932141e+02 +1.8528782381e+02 2.8610571688e+02 1.7300000000e+02 0.0000e+00 -1.0000e+00
       -6  1    1    2    0  502 +1.2685153521e+02 -1.5459257264e+02 +3.5632570715e+02 4.4371971454e+02 1.7300000000e+02 0.0000e+00 -1.0000e+00
       21  1    1    2  504  503 -1.2709337993e+02 +1.2512044449e+00 -9.2491619157e+01 1.5719094233e+02 0.0000000000e+00 0.0000e+00 -1.0000e+00
       21  1    1    2  505  504 -3.2405255783e+01 +2.4772046779e+01 +1.1947649704e+01 4.2502955631e+01 0.0000000000e+00 0.0000e+00 1.0000e+00
<mgrwt>
<rscale>  4 0.23027074E+03</rscale>
<asrwt>0</asrwt>
<pdfrwt beam="1">  1       21 0.10696838E+00 0.23027074E+03</pdfrwt>
<pdfrwt beam="2">  1       21 0.36034598E-01 0.23027074E+03</pdfrwt>
<totfact> 0.50442703E+03</totfact>
</mgrwt>
</event>
<event>
 6      1 +2.5196620e+02 2.83395600e+02 7.54677100e-03 1.12691600e-01
       21 -1    0    0  501  502 +0.0000000000e+00 +0.0000000000e+00 +8.7366951265e+02 8.7366951265e+02 0.0000000000e+00 0.0000e+00 1.0000e+00
       21 -1    0    0  504  503 -0.0000000000e+00 -0.0000000000e+00 -3.1914559648e+02 3.1914559648e+02 0.0000000000e+00 0.0000e+00 -1.0000e+00
        6  1    1    2  501    0 +2.0707019958e+01 -1.0402578812e+02 +9.6977387366e+01 2.2490833450e+02 1.7300000000e+02 0.0000e+00 -1.0000e+00
       -6  1    1    2    0  503 +2.1323507637e+02 +8.5998037618e+01 -7.8757329998e+01 2.9832294129e+02 1.7300000000e+02 0.0000e+00 -1.0000e+00
       21  1    1    2  504  505 -7.0254454334e+01 +1.4958764833e+02 +1.2308559020e+02 2.0606361980e+02 0.0000000000e+00 0.0000e+00 1.0000e+00
       21  1    1    2  505  502 -1.6368764199e+02 -1.3155989784e+02 +4.1321826860e+02 4.6352021355e+02 0.0000000000e+00 0.0000e+00 1.0000e+00
<mgrwt>
<rscale>  4 0.25532243E+03</rscale>
<asrwt>0</asrwt>
<pdfrwt beam="1">  1       21 0.13441069E+00 0.28339565E+03</pdfrwt>
<pdfrwt beam="2">  1       21 0.49099323E-01 0.28339565E+03</pdfrwt>
<totfact> 0.14598711E+03</totfact>
</mgrwt>
</event>
<event>
 6      1 +2.5196620e+02 1.89781300e+02 7.54677100e-03 1.16558800e-01
       21 -1    0    0  503  502 +0.0000000000e+00 +0.0000000000e+00 +3.6161889887e+02 3.6161889887e+02 0.0000000000e+00 0.0000e+00 1.0000e+00
       21 -1    0    0  504  503 -0.0000000000e+00 -0.0000000000e+00 -2.0776975125e+02 2.0776975125e+02 0.0000000000e+00 0.0000e+00 1.0000e+00
        6  1    1    2  501    0 +4.6398667691e+01 -6.9086117220e+01 -7.1823517087e+01 2.0497157257e+02 1.7300000000e+02 0.0000e+00 1.0000e+00
       -6  1    1    2    0  505 -8.7861123033e+01 +1.9658741733e+01 +1.8569666874e+02 2.6929221275e+02 1.7300000000e+02 0.0000e+00 1.0000e+00
       21  1    1    2  504  501 +1.9631636813e+01 +3.2187400663e+01 -9.0355383716e+00 3.8769458071e+01 0.0000000000e+00 0.0000e+00 1.0000e+00
       21  1    1    2  505  502 +2.1830818529e+01 +1.7239974823e+01 +4.9011534340e+01 5.6355406731e+01 0.0000000000e+00 0.0000e+00 1.0000e+00
<mgrwt>
<rscale>  4 0.18978131E+03</rscale>
<asrwt>0</asrwt>
<pdfrwt beam="1">  1       21 0.55633677E-01 0.18978131E+03</pdfrwt>
<pdfrwt beam="2">  1       21 0.31964577E-01 0.18978131E+03</pdfrwt>
<totfact> 0.28701753E+04</totfact>
</mgrwt>
</event>
<event>
 6      1 +2.5196620e+02 1.97899300e+02 7.54677100e-03 1.11396600e-01
       21 -1    0    0  505  502 +0.0000000000e+00 +0.0000000000e+00 +6.4081774010e+02 6.4081774010e+02 0.0000000000e+00 0.0000e+00 -1.0000e+00
       21 -1    0    0  502  503 -0.0000000000e+00 -0.0000000000e+00 -2.4257798075e+02 2.4257798075e+02 0.0000000000e+00 0.0000e+00 1.0000e+00
        6  1    1    2  501    0 +6.0702061280e+01 +6.1253158756e+01 +3.0214521062e+02 3.5868846929e+02 1.7300000000e+02 0.0000e+00 1.0000e+00
       -6  1    1    2    0  503 -9.3810254136e+01 -3.0836721108e+01 -1.5947843571e+02 2.5517374200e+02 1.7300000000e+02 0.0000e+00 1.0000e+00
       21  1    1    2  504  501 +3.2095776144e+01 +1.7832922055e+01 +1.2701947066e+02 1.3221988459e+02 0.0000000000e+00 0.0000e+00 1.0000e+00
       21  1    1    2  505  504 +1.0124167126e+00 -4.8249359703e+01 +1.2855351377e+02 1.3731362497e+02 0.0000000000e+00 0.0000e+00 -1.0000e+00
<mgrwt>
<rscale>  4 0.19789935E+03</rscale>
<asrwt>0</asrwt>
<pdfrwt beam="1">  1       21 0.98587344E-01 0.19789935E+03</pdfrwt>
<pdfrwt beam="2">  1       21 0.37319690E-01 0.19789935E+03</pdfrwt>
<totfact> 0.58556918E+03</totfact>
</mgrwt>
</event>
<event>
 6      1 +2.5196620e+02 2.24408800e+02 7.54677100e-03 1.14954000e-01
       21 -1    0    0  504  502 +0.0000000000e+00 +0.0000000000e+00 +1.5659555141e+03 1.5659555141e+03 0.0000000000e+00 0.0000e+00 1.0000e+00
       21 -1    0    0  502  503 -0.0000000000e+00 -0.0000000000e+00 -7.4438077861e+02 7.4438077861e+02 0.0000000000e+00 0.0000e+00 1.0000e+00
        6  1    1    2  501    0 +1.2949294981e+02 +6.8196451360e+01 -7.0186122474e+02 7.3753464923e+02 1.7300000000e+02 0.0000e+00 1.0000e+00
       -6  1    1    2    0  503 -7.6676098285e+01 -2.6317513268e-01 +3.6723394584e+02 4.1312112544e+02 1.7300000000e+02 0.0000e+00 1.0000e+00
       21  1    1    2  504  505 -3.8317311765e+01 -2.8573584725e+01 +6.2464198362e+02 6.2646809482e+02 0.0000000000e+00 0.0000e+00 1.0000e+00
       21  1    1    2  505  501 -1.4499539763e+01 -3.9359691502e+01 +5.3156003074e+02 5.3321242320e+02 0.0000000000e+00 0.0000e+00 1.0000e+00
<mgrwt>
<rscale>  4 0.22440877E+03</rscale>
<asrwt>0</asrwt>
<pdfrwt beam="1">  1       21 0.24091623E+00 0.22440877E+03</pdfrwt>
<pdfrwt beam="2">  1       21 0.11452012E+00 0.22440877E+03</pdfrwt>
<totfact> 0.42435485E+01</totfact>
</mgrwt>
</event>
<event>
 6      1 +2.5196620e+02 1.86191900e+02 7.54677100e-03 1.11396600e-01
       21 -1    0    0  504  502 +0.0000000000e+00 +0.0000000000e+00 +1.4329471374e+02 1.4329471374e+02 0.0000000000e+00 0.0000e+00 1.0000e+00
       21 -1    0    0  502  503 -0.0000000000e+00 -0.0000000000e+00 -4.2703322366e+02 4.2703322366e+02 0.0000000000e+00 0.0000e+00 1.0000e+00
        6  1    1    2  501    0 +1.9928766015e+01 -3.3346692067e+01 -2.4306150686e+01 1.7896632797e+02 1.7300000000e+02 0.0000e+00 1.0000e+00
       -6  1    1    2    0  503 -1.2097203405e+01 +8.0336152244e+01 -2.7941452588e+02 3.3852875352e+02 1.7300000000e+02 0.0000e+00 1.0000e+00
       21  1    1    2  504  505 -7.3601970616e+00 -2.4187596416e+01 +5.6806733774e+00 2.5912976888e+01 0.0000000000e+00 0.0000e+00 -1.0000e+00
       21  1    1    2  505  501 -4.7136554755e-01 -2.2801863761e+01 +1.4301493267e+01 2.6919879014e+01 0.0000000000e+00 0.0000e+00 -1.0000e+00
<mgrwt>
<rscale>  4 0.18619189E+03</rscale>
<asrwt>0</asrwt>
<pdfrwt beam="1">  1       21 0.22045341E-01 0.18619189E+03</pdfrwt>
<pdfrwt beam="2">  1       21 0.65697418E-01 0.18619189E+03</pdfrwt>
<totfact> 0.41077312E+04</totfact>
</mgrwt>
</event>
<event>
 6      1 +2.5196620e+02 2.34912900e+02 7.54677100e-03 1.16726300e-01
       21 -1    0    0  504  502 +0.0000000000e+00 +0.0000000000e+00 +1.7631948021e+02 1.7631948021e+02 0.0000000000e+00 0.0000e+00 1.0000e+00
       21 -1    0    0  502  503 -0.0000000000e+00 -0.0000000000e+00 -1.1684594388e+03 1.1684594388e+03 0.0000000000e+00 0.0000e+00 1.0000e+00
        6  1    1    2  501    0 -3.1008951378e+01 -8.1574111383e+01 -5.9111319032e+02 6.2206084468e+02 1.7300000000e+02 0.0000e+00 1.0000e+00
       -6  1    1    2    0  505 +1.7033138825e+02 +4.8249299291e+01 +4.0688630361e+01 2.5084924027e+02 1.7300000000e+02 0.0000e+00 1.0000e+00
       21  1    1    2  504  501 -1.1219184876e+02 +4.1643896686e+01 -2.4014887673e+02 2.6831456922e+02 0.0000000000e+00 0.0000e+00 1.0000e+00
       21  1    1    2  505  503 -2.7130588116e+01 -8.3190845937e+00 -2.0156652189e+02 2.0355426482e+02 0.0000000000e+00 0.0000e+00 1.0000e+00
<mgrwt>
<rscale>  4 0.23491288E+03</rscale>
<asrwt>0</asrwt>
<pdfrwt beam="1">  1       21 0.27126074E-01 0.23491288E+03</pdfrwt>
<pdfrwt beam="2">  1       21 0.17976299E+00 0.23491288E+03</pdfrwt>
<totfact> 0.22759498E+03</totfact>
</mgrwt>
</event>
<event>
 6      1 +2.5196620e+02 4.30752000e+02 7.54677100e-03 9.49153200e-02
       21 -1    0    0  504  502 +0.0000000000e+00 +0.0000000000e+00 +7.5899843085e+02 7.5899843085e+02 0.0000000000e+00 0.0000e+00 -1.0000e+00
       21 -1    0    0  501  503 -0.0000000000e+00 -0.0000000000e+00 -1.0777477980e+03 1.0777477980e+03 0.0000000000e+00 0.0000e+00 1.0000e+00
        6  1    1    2  501    0 -2.8646084397e+02 -5.6223909024e+01 -3.4303591895e+01 3.4106697215e+02 1.7300000000e+02 0.0000e+00 1.0000e+00
       -6  1    1    2    0  505 +4.5135430181e+02 +2.0749855625e+02 +2.8857902022e+02 5.9998600611e+02 1.7300000000e+02 0.0000e+00 -1.0000e+00
       21  1    1    2  504  503 -1.8146309796e+02 +3.5166597079e-01 -6.8361617041e+02 7.0729063901e+02 0.0000000000e+00 0.0000e+00 1.0000e+00
       21  1    1    2  505  502 +1.6569640121e+01 -1.5162631320e+02 +1.1059137495e+02 1.8840261156e+02 0.0000000000e+00 0.0000e+00 -1.0000e+00
<mgrwt>
<rscale>  4 0.43075198E+03</rscale>
<asrwt>0</asrwt>
<pdfrwt beam="1">  1       21 0.11676899E+00 0.43075198E+03</pdfrwt>
<pdfrwt beam="2">  1       21 0.16580735E+00 0.43075198E+03</pdfrwt>
<totfact> 0.10458148E+02</totfact>
</mgrwt>
</event>
<event>
 6      1 +2.5196620e+02 2.03721500e+02 7.54677100e-03 1.06301000e-01
       21 -1    0    0  505  502 +0.0000000000e+00 +0.0000000000e+00 +3.0548634102e+02 3.0548634102e+02 0.0000000000e+00 0.0000e+00 -1.0000e+00
       21 -1    0    0  501  503 -0.0000000000e+00 -0.0000000000e+00 -2.3050511793e+02 2.3050511793e+02 0.0000000000e+00 0.0000e+00 -1.0000e+00
        6  1    1    2  501    0 +4.8695662542e+01 +9.8112545296e+01 +3.7942813648e+00 2.0479437411e+02 1.7300000000e+02 0.0000e+00 -1.0000e+00
       -6  1    1    2    0  502 -7.8242012622e+01 -7.6698886478e+01 -3.3541866632e+00 2.0480425360e+02 1.7300000000e+02 0.0000e+00 -1.0000e+00
       21  1    1    2  504  503 +2.3046663925e+01 -2.4196050596e-01 -1.9245605069e+01 3.0026664440e+01 0.0000000000e+00 0.0000e+00 1.0000e+00
       21  1    1    2  505  504 +6.4996861548e+00 -2.1171698312e+01 +9.3786733456e+01 9.6366166791e+01 0.0000000000e+00 0.0000e+00 -1.0000e+00
<mgrwt>
<rscale>  4 0.20372151E+03</rscale>
<asrwt>0</asrwt>
<pdfrwt beam="1">  1       21 0.46997899E-01 0.20372151E+03</pdfrwt>
<pdfrwt beam="2">  1       21 0.35462326E-01 0.20372151E+03</pdfrwt>
<totfact> 0.33023443E+04</totfact>
</mgrwt>
</event>
<event>
 6      1 +2.5196620e+02 1.76553300e+02 7.54677100e-03 9.49153200e-02
       21 -1    0    0  505  502 +0.0000000000e+00 +0.0000000000e+00 +7.6020481536e+02 7.6020481536e+02 0.0000000000e+00 0.0000e+00 1.0000e+00
       21 -1    0    0  504  503 -0.0000000000e+00 -0.0000000000e+00 -3.0187801539e+02 3.0187801539e+02 0.0000000000e+00 0.0000e+00 1.0000e+00
        6  1    1    2  501    0 -4.6094156945e+01 +4.4441409918e+01 +2.6410851857e+02 3.2215216871e+02 1.7300000000e+02 0.0000e+00 1.0000e+00
       -6  1    1    2    0  502 +6.5248495594e+00 -1.7368211726e+01 +4.0054308852e+02 4.3670126426e+02 1.7300000000e+02 0.0000e+00 1.0000e+00
       21  1    1    2  504  501 +3.2559391969e+00 -2.5210451771e+01 -2.4721053300e+02 2.4851401499e+02 0.0000000000e+00 0.0000e+00 1.0000e+00
       21  1    1    2  505  503 +3.6313368189e+01 -1.8627464207e+00 +4.0885725873e+01 5.4715382787e+01 0.0000000000e+00 0.0000e+00 -1.0000e+00
<mgrwt>
<rscale>  4 0.17655330E+03</rscale>
<asrwt>0</asrwt>
<pdfrwt beam="1">  1       21 0.11695459E+00 0.17655330E+03</pdfrwt>
<pdfrwt beam="2">  1       21 0.46442772E-01 0.17655330E+03</pdfrwt>
<totfact> 0.25357157E+03</totfact>
</mgrwt>
</event>
<event>
 6      1 +2.5196620e+02 2.39310900e+02 7.54677100e-03 1.16128000e-01
       21 -1    0    0  501  502 +0.0000000000e+00 +0.0000000000e+00 +1.2226889028e+03 1.2226889028e+03 0.0000000000e+00 0.0000e+00 -1.0000e+00
       21 -1    0    0  502  503 -0.0000000000e+00 -0.0000000000e+00 -4.8219342382e+02 4.8219342382e+02 0.0000000000e+00 0.0000e+00 1.0000e+00
        6  1    1    2  501    0 +3.3102689122e+01 -2.0612053399e+02 +9.3757343916e+02 9.7598894276e+02 1.7300000000e+02 0.0000e+00 -1.0000e+00
       -6  1    1    2    0  505 +1.6059169392e+01 +8.4941133900e+01 +2.1740931483e+02 2.9097887092e+02 1.7300000000e+02 0.0000e+00 -1.0000e+00
       21  1    1    2  504  503 -7.4590689103e+00 +2.8821635421e+01 -1.8031607882e+02 1.8275725063e+02 0.0000000000e+00 0.0000e+00 1.0000e+00
       21  1    1    2  505  504 -4.1702789604e+01 +9.2357764671e+01 -2.3417119621e+02 2.5515726227e+02 0.0000000000e+00 0.0000e+00 1.0000e+00
<mgrwt>
<rscale>  4 0.23931090E+03</rscale>
<asrwt>0</asrwt>
<pdfrwt beam="1">  1       21 0.18810598E+00 0.23931090E+03</pdfrwt>
<pdfrwt beam="2">  1       21 0.74183604E-01 0.23931090E+03</pdfrwt>
<totfact> 0.24761875E+02</totfact>
</mgrwt>
</event>
<event>
 6      1 +2.5196620e+02 3.39832800e+02 7.54677100e-03 1.06301000e-01
       21 -1    0    0  503  502 +0.0000000000e+00 +0.0000000000e+00 +5.5675183873e+02 5.5675183873e+02 0.0000000000e+00 0.0000e+00 -1.0000e+00
       21 -1    0    0  504  503 -0.0000000000e+00 -0.0000000000e+00 -3.8846704091e+02 3.8846704091e+02 0.0000000000e+00 0.0000e+00 -1.0000e+00
        6  1    1    2  501    0 +2.7148908086e+02 -8.4568033120e+00 +6.0191833859e+01 3.2761241645e+02 1.7300000000e+02 0.0000e+00 -1.0000e+00
       -6  1    1    2    0  505 -3.1421839070e+02 +2.2223504414e+00 +1.4603402810e+02 3.8728939213e+02 1.7300000000e+02 0.0000e+00 -1.0000e+00
       21  1    1    2  504  501 +2.2963701688e+01 -1.8031564439e+00 -1.3193551302e+02 1.3393118593e+02 0.0000000000e+00 0.0000e+00 -1.0000e+00
       21  1    1    2  505  502 +1.9765608151e+01 +8.0376093145e+00 +9.3994448889e+01 9.6385885123e+01 0.0000000000e+00 0.0000e+00 -1.0000e+00
<mgrwt>
<rscale>  4 0.33983278E+03</rscale>
<asrwt>0</asrwt>
<pdfrwt beam="1">  1       21 0.85654129E-01 0.33983278E+03</pdfrwt>
<pdfrwt beam="2">  1       21 0.59764160E-01 0.33983278E+03</pdfrwt>
<totfact> 0.27974999E+03</totfact>
</mgrwt>
</event>
<event>
 6      1 +2.5196620e+02 2.44621200e+02 7.54677100e-03 1.16321900e-01
       21 -1    0    0  504  502 +0.0000000000e+00 +0.0000000000e+00 +1.1711796848e+03 1.1711796848e+03 0.0000000000e+00 0.0000e+00 1.0000e+00
       21 -1    0    0  501  503 -0.0000000000e+00 -0.0000000000e+00 -1.0214534954e+02 1.0214534954e+02 0.0000000000e+00 0.0000e+00 1.0000e+00
        6  1    1    2  501    0 +9.4117885819e+01 +1.0896368281e+02 +3.3124203240e+02 4.0047664680e+02 1.7300000000e+02 0.0000e+00 1.0000e+00
       -6  1    1    2    0  502 +8.7678179270e+01 -1.5513931711e+01 +5.6302526252e+02 5.9569672773e+02 1.7300000000e+02 0.0000e+00 1.0000e+00
       21  1    1    2  504  505 -1.8019897898e+02 -7.2730686283e+01 +1.5789161085e+02 2.5038207909e+02 0.0000000000e+00 0.0000e+00 1.0000e+00
       21  1    1    2  505  503 -1.5970861091e+00 -2.0719064812e+01 +1.6875429452e+01 2.6769580682e+01 0.0000000000e+00 0.0000e+00 -1.0000e+00
<mgrwt>
<rscale>  4 0.23107014E+03</rscale>
<asrwt>0</asrwt>
<pdfrwt beam="1">  1       21 0.18018148E+00 0.24462115E+03</pdfrwt>
<pdfrwt beam="2">  1       21 0.15714670E-01 0.24462115E+03</pdfrwt>
<totfact> 0.62775522E+03</totfact>
</mgrwt>
</event>
<event>
 6      1 +2.5196620e+02 2.52369100e+02 7.54677100e-03 9.49153200e-02
       21 -1    0    0  505  502 +0.0000000000e+00 +0.0000000000e+00 +1.3742406138e+02 1.3742406138e+02 0.0000000000e+00 0.0000e+00 1.0000e+00
       21 -1    0    0  501  503 -0.0000000000e+00 -0.0000000000e+00 -1.6345183388e+03 1.6345183388e+03 0.0000000000e+00 0.0000e+00 1.0000e+00
        6  1    1    2  501    0 -2.0543139686e+02 -2.2033623308e+02 -3.9515599840e+02 5.2614387528e+02 1.7300000000e+02 0.0000e+00 1.0000e+00
       -6  1    1    2    0  502 +4.2165414293e+01 +6.7106516966e+01 -6.8163459134e+02 7.0769762109e+02 1.7300000000e+02 0.0000e+00 1.0000e+00
       21  1    1    2  504  503 +1.2678059583e+02 +4.8272523519e+01 -4.0353142449e+02 4.2572428467e+02 0.0000000000e+00 0.0000e+00 1.0000e+00
       21  1    1    2  505  504 +3.6485386741e+01 +1.0495719259e+02 -1.6772263209e+01 1.1237661917e+02 0.0000000000e+00 0.0000e+00 1.0000e+00
<mgrwt>
<rscale>  4 0.25236915E+03</rscale>
<asrwt>0</asrwt>
<pdfrwt beam="1">  1       21 0.21142162E-01 0.25236915E+03</pdfrwt>
<pdfrwt beam="2">  1       21 0.25146437E+00 0.25236915E+03</pdfrwt>
<totfact> 0.12728014E+03</totfact>
</mgrwt>
</event>
<event>
 6      1 +2.5196620e+02 2.19295200e+02 7.54677100e-03 1.14954000e-01
       21 -1    0    0  501  502 +0.0000000000e+00 +0.0000000000e+00 +2.0723461400e+02 2.0723461400e+02 0.0000000000e+00 0.0000e+00 -1.0000e+00
       21 -1    0    0  505  503 -0.0000000000e+00 -0.0000000000e+00 -1.2286523412e+03 1.2286523412e+03 0.0000000000e+00 0.0000e+00 1.0000e+00
        6  1    1    2  501    0 -1.6938180193e+01 +4.3244138161e+01 -1.2173149971e+02 2.1657450325e+02 1.7300000000e+02 0.0000e+00 1.0000e+00
       -6  1    1    2    0  503 +1.0880684461e+02 -1.2116754135e+02 -9.4997763883e+02 9.7923797760e+02 1.7300000000e+02 0.0000e+00 1.0000e+00
       21  1    1    2  504  502 -7.6202269209e+01 +1.2417232718e+02 +9.4952051730e+01 1.7390067509e+02 0.0000000000e+00 0.0000e+00 -1.0000e+00
       21  1    1    2  505  504 -1.5666395204e+01 -4.6248923997e+01 -4.4660640425e+01 6.6173799292e+01 0.0000000000e+00 0.0000e+00 1.0000e+00
<mgrwt>
<rscale>  4 0.21929521E+03</rscale>
<asrwt>0</asrwt>
<pdfrwt beam="1">  1       21 0.31882248E-01 0.21929521E+03</pdfrwt>
<pdfrwt beam="2">  1       21 0.18902344E+00 0.21929521E+03</pdfrwt>
<totfact> 0.14577617E+03</totfact>
</mgrwt>
</event>
<event>
 6      1 +2.5196620e+02 2.32312700e+02 7.54677100e-03 1.09079000e-01
       21 -1    0    0  503  502 +0.0000000000e+00 +0.0000000000e+00 +7.4194594184e+02 7.4194594184e+02 0.0000000000e+00 0.0000e+00 1.0000e+00
       21 -1    0    0  501  503 -0.0000000000e+00 -0.0000000000e+00 -8.5779933388e+02 8.5779933388e+02 0.0000000000e+00 0.0000e+00 1.0000e+00
        6  1    1    2  501    0 -6.4649439273e+01 +1.3874168610e+02 -7.6745692966e+02 8.0146612177e+02 1.7300000000e+02 0.0000e+00 1.0000e+00
       -6  1    1    2    0  504 +1.3095089721e+01 -2.2362311759e+02 +4.1908652045e+02 5.0570870243e+02 1.7300000000e+02 0.0000e+00 1.0000e+00
       21  1    1    2  504  505 +1.6130032673e+01 +7.1009353968e+01 +1.8409560471e+01 7.5109375059e+01 0.0000000000e+00 0.0000e+00 -1.0000e+00
       21  1    1    2  505  502 +3.5424316879e+01 +1.3872077522e+01 +2.1410745670e+02 2.1746107646e+02 0.0000000000e+00 0.0000e+00 1.0000e+00
<mgrwt>
<rscale>  4 0.23231275E+03</rscale>
<asrwt>0</asrwt>
<pdfrwt beam="1">  1       21 0.11414553E+00 0.23231275E+03</pdfrwt>
<pdfrwt beam="2">  1       21 0.13196913E+00 0.23231275E+03</pdfrwt>
<totfact> 0.23737597E+02</totfact>
</mgrwt>
</event>
<event>
 6      1 +2.5196620e+02 1.95433900e+02 7.54677100e-03 1.06301000e-01
       21 -1    0    0  505  502 +0.0000000000e+00 +0.0000000000e+00 +2.0804333081e+03 2.0804333081e+03 0.0000000000e+00 0.0000e+00 -1.0000e+00
       21 -1    0    0  501  503 -0.0000000000e+00 -0.0000000000e+00 -4.1112057396e+02 4.1112057396e+02 0.0000000000e+00 0.0000e+00 1.0000e+00
        6  1    1    2  501    0 +8.4184583612e+01 +1.2241077305e+02 -1.5659190013e+02 2.7662513382e+02 1.7300000000e+02 0.0000e+00 1.0000e+00
       -6  1    1    2    0  502 -1.1748950932e+01 -1.8337320081e+01 -2.8085424051e+01 1.7661281437e+02 1.7300000000e+02 0.0000e+00 -1.0000e+00
       21  1    1    2  504  503 +1.2911913982e+01 -1.8810964973e+01 -8.8850628215e+01 9.1733331239e+01 0.0000000000e+00 0.0000e+00 -1.0000e+00
       21  1    1    2  505  504 -8.5347546662e+01 -8.5262487995e+01 +1.9428406865e+03 1.9465826026e+03 0.0000000000e+00 0.0000e+00 -1.0000e+00
<mgrwt>
<rscale>  4 0.19543393E+03</rscale>
<asrwt>0</asrwt>
<pdfrwt beam="1">  1       21 0.32006666E+00 0.19543393E+03</pdfrwt>
<pdfrwt beam="2">  1       21 0.63249320E-01 0.19543393E+03</pdfrwt>
<totfact> 0.60180594E+01</totfact>
</mgrwt>
</event>
<event>
 6      1 +2.5196620e+02 1.90181800e+02 7.54677100e-03 1.06301000e-01
       21 -1    0    0  505  502 +0.0000000000e+00 +0.0000000000e+00 +4.6048949533e+02 4.6048949533e+02 0.0000000000e+00 0.0000e+00 1.0000e+00
       21 -1    0    0  504  503 -0.0000000000e+00 -0.0000000000e+00 -9.1746104154e+02 9.1746104154e+02 0.0000000000e+00 0.0000e+00 -1.0000e+00
        6  1    1    2  501    0 +8.2005495157e+01 +3.5251475513e+01 -3.3397038291e+02 3.8656536888e+02 1.7300000000e+02 0.0000e+00 -1.0000e+00
       -6  1    1    2    0  502 -8.1404563180e+01 -4.6280573775e+01 -1.0662128956e+02 2.2375364534e+02 1.7300000000e+02 0.0000e+00 -1.0000e+00
       21  1    1    2  504  501 -3.1309279253e+01 -1.7720001238e+00 -3.9063943036e+02 3.9189612847e+02 0.0000000000e+00 0.0000e+00 -1.0000e+00
       21  1    1    2  505  503 +3.0708347276e+01 +1.2801098385e+01 +3.7425955663e+02 3.7573539418e+02 0.0000000000e+00 0.0000e+00 1.0000e+00
<mgrwt>
<rscale>  4 0.19018177E+03</rscale>
<asrwt>0</asrwt>
<pdfrwt beam="1">  1       21 0.70844538E-01 0.19018177E+03</pdfrwt>
<pdfrwt beam="2">  1       21 0.14114785E+00 0.19018177E+03</pdfrwt>
<totfact> 0.63396506E+02</totfact>
</mgrwt>
</event>
<event>
 6      1 +2.5196620e+02 2.45666900e+02 7.54677100e-03 1.06301000e-01
       21 -1    0    0  504  502 +0.0000000000e+00 +0.0000000000e+00 +3.3512863076e+02 3.3512863076e+02 0.0000000000e+00 0.0000e+00 -1.0000e+00
       21 -1    0    0  501  503 -0.0000000000e+00 -0.0000000000e+00 -1.4737512389e+03 1.4737512389e+03 0.0000000000e+00 0.0000e+00 -1.0000e+00
        6  1    1    2  501    0 -1.6237032397e+02 -6.8245461744e+01 -1.3806807048e+02 2.8286632398e+02 1.7300000000e+02 0.0000e+00 -1.0000e+00
       -6  1    1    2    0  505 +1.5290197880e+02 +4.0076572848e+01 +7.5096592967e+00 2.3445797448e+02 1.7300000000e+02 0.0000e+00 -1.0000e+00
       21  1    1    2  504  503 -2.6893010623e+01 -9.9692475236e-01 -1.1458154109e+03 1.1461313990e+03 0.0000000000e+00 0.0000e+00 -1.0000e+00
       21  1    1    2  505  502 +3.6361355797e+01 +2.9165813648e+01 +1.3775121402e+02 1.4542417215e+02 0.0000000000e+00 0.0000e+00 -1.0000e+00
<mgrwt>
<rscale>  4 0.24566694E+03</rscale>
<asrwt>0</asrwt>
<pdfrwt beam="1">  1       21 0.51558251E-01 0.24566694E+03</pdfrwt>
<pdfrwt beam="2">  1       21 0.22673096E+00 0.24566694E+03</pdfrwt>
<totfact> 0.30710733E+02</totfact>
</mgrwt>
</event>
<event>
 6      1 +2.5196620e+02 2.41524200e+02 7.54677100e-03 9.28652600e-02
       21 -1    0    0  504  502 +0.0000000000e+00 +0.0000000000e+00 +3.5751009922e+02 3.5751009922e+02 0.0000000000e+00 0.0000e+00 1.0000e+00
       21 -1    0    0  505  503 -0.0000000000e+00 -0.0000000000e+00 -1.1636958571e+03 1.1636958571e+03 0.0000000000e+00 0.0000e+00 -1.0000e+00
        6  1    1    2  501    0 +1.9386140059e-01 -1.5940556226e+02 -7.6938481181e+02 8.0454469080e+02 1.7300000000e+02 0.0000e+00 -1.0000e+00
       -6  1    1    2    0  502 -1.7102129217e+01 +1.6821437362e+02 +2.9477301550e+02 3.8132491262e+02 1.7300000000e+02 0.0000e+00 1.0000e+00
       21  1    1    2  504  503 +1.0306599664e+00 -2.5434522043e+01 -1.3109207927e+02 1.3354066953e+02 0.0000000000e+00 0.0000e+00 -1.0000e+00
       21  1    1    2  505  501 +1.5877607850e+01 +1.6625710678e+01 -2.0048188236e+02 2.0179568341e+02 0.0000000000e+00 0.0000e+00 -1.0000e+00
<mgrwt>
<rscale>  4 0.24152418E+03</rscale>
<asrwt>0</asrwt>
<pdfrwt beam="1">  1       21 0.55001554E-01 0.24152418E+03</pdfrwt>
<pdfrwt beam="2">  1       21 0.17903013E+00 0.24152418E+03</pdfrwt>
<totfact> 0.54719160E+02</totfact>
</mgrwt>
</event>
<event>
 6      1 +2.5196620e+02 2.41463200e+02 7.54677100e-03 1.16558800e-01
       21 -1    0    0  503  502 +0.0000000000e+00 +0.0000000000e+00 +2.6413526581e+02 2.6413526581e+02 0.0000000000e+00 0.0000e+00 -1.0000e+00
       21 -1    0    0  504  503 -0.0000000000e+00 -0.0000000000e+00 -4.9361649744e+02 4.9361649744e+02 0.0000000000e+00 0.0000e+00 -1.0000e+00
        6  1    1    2  501    0 -7.1625656632e+01 +1.3863809015e+02 -2.7060171830e+02 3.5707848531e+02 1.7300000000e+02 0.0000e+00 -1.0000e+00
       -6  1    1    2    0  505 +7.2876722614e+01 -1.8545539699e+02 -6.0740638988e+01 2.7078247025e+02 1.7300000000e+02 0.0000e+00 -1.0000e+00
       21  1    1    2  504  501 +9.3690652456e+00 +1.9662241051e+01 -2.1347129846e+00 2.1884700278e+01 0.0000000000e+00 0.0000e+00 -1.0000e+00
       21  1    1    2  505  502 -1.0620131228e+01 +2.7155065788e+01 +1.0399583864e+02 1.0800610741e+02 0.0000000000e+00 0.0000e+00 -1.0000e+00
<mgrwt>
<rscale>  4 0.24146316E+03</rscale>
<asrwt>0</asrwt>
<pdfrwt beam="1">  1       21 0.40636195E-01 0.24146316E+03</pdfrwt>
<pdfrwt beam="2">  1       21 0.75940999E-01 0.24146316E+03</pdfrwt>
<totfact> 0.87377894E+03</totfact>
</mgrwt>
</event>
<event>
 6      1 +2.5196620e+02 1.76345600e+02 7.54677100e-03 1.09711200e-01
       21 -1    0    0  501  502 +0.0000000000e+00 +0.0000000000e+00 +1.1758650619e+03 1.1758650619e+03 0.0000000000e+00 0.0000e+00 -1.0000e+00
       21 -1    0    0  505  503 -0.0000000000e+00 -0.0000000000e+00 -4.9050406990e+02 4.9050406990e+02 0.0000000000e+00 0.0000e+00 -1.0000e+00
        6  1    1    2  501    0 -5.9457001803e+00 -3.9088602161e+01 -3.9852533154e+02 4.3625074218e+02 1.7300000000e+02 0.0000e+00 -1.0000e+00
       -6  1    1    2    0  503 +1.1986667856e+02 -5.9693936472e+01 +1.2038301142e+02 2.4970473788e+02 1.7300000000e+02 0.0000e+00 -1.0000e+00
       21  1    1    2  504  502 -1.3096015481e+01 +3.1664859896e+01 +5.0566955271e+02 5.0682922717e+02 0.0000000000e+00 0.0000e+00 -1.0000e+00
       21  1    1    2  505  504 -1.0082496290e+02 +6.7117678737e+01 +4.5783375939e+02 4.7358442455e+02 0.0000000000e+00 0.0000e+00 -1.0000e+00
<mgrwt>
<rscale>  4 0.17634558E+03</rscale>
<asrwt>0</asrwt>
<pdfrwt beam="1">  1       21 0.18090232E+00 0.17634558E+03</pdfrwt>
<pdfrwt beam="2">  1       21 0.75462165E-01 0.17634558E+03</pdfrwt>
<totfact> 0.28747339E+02</totfact>
</mgrwt>
</event>
<event>
 6      1 +2.5196620e+02 1.90662000e+02 7.54677100e-03 9.49153200e-02
       21 -1    0    0  505  502 +0.0000000000e+00 +0.0000000000e+00 +5.6252998386e+02 5.6252998386e+02 0.0000000000e+00 0.0000e+00 -1.0000e+00
       21 -1    0    0  504  503 -0.0000000000e+00 -0.0000000000e+00 -5.6986863110e+02 5.6986863110e+02 0.0000000000e+00 0.0000e+00 -1.0000e+00
        6  1    1    2  501    0 +3.3543203527e+01 +7.7225759383e+01 -1.8737338424e+02 2.6856423727e+02 1.7300000000e+02 0.0000e+00 -1.0000e+00
       -6  1    1    2    0  502 -5.6553437662e+01 -1.5904764587e+01 +1.1497910057e+02 2.1587136544e+02 1.7300000000e+02 0.0000e+00 1.0000e+00
       21  1    1    2  504  501 +3.3716692744e+01 -1.6343221087e+01 -2.8873909890e+02 2.9116006505e+02 0.0000000000e+00 0.0000e+00 -1.0000e+00
       21  1    1    2  505  503 -1.0706458608e+01 -4.4977773709e+01 +3.5379473533e+02 3.5680294720e+02 0.0000000000e+00 0.0000e+00 -1.0000e+00
<mgrwt>
<rscale>  4 0.19066204E+03</rscale>
<asrwt>0</asrwt>
<pdfrwt beam="1">  1       21 0.86543075E-01 0.19066204E+03</pdfrwt>
<pdfrwt beam="2">  1       21 0.87672097E-01 0.19066204E+03</pdfrwt>
<totfact> 0.12858911E+03</totfact>
</mgrwt>
</event>
<event>
 6      1 +2.5196620e+02 2.35727200e+02 7.54677100e-03 1.12691600e-01
       21 -1    0    0  505  502 +0.0000000000e+00 +0.0000000000e+00 +3.2755397592e+02 3.2755397592e+02 0.0000000000e+00 0.0000e+00 -1.0000e+00
       21 -1    0    0  504  503 -0.0000000000e+00 -0.0000000000e+00 -3.3385830390e+02 3.3385830390e+02 0.0000000000e+00 0.0000e+00 -1.0000e+00
        6  1    1    2  501    0 +1.7793399860e+02 -1.0433743457e+02 +7.8725677248e+01 2.8048803962e+02 1.7300000000e+02 0.0000e+00 -1.0000e+00
       -6  1    1    2    0  503 -1.2151891438e+02 -2.8624831445e+01 -4.2593289480e+01 2.1755324828e+02 1.7300000000e+02 0.0000e+00 1.0000e+00
       21  1    1    2  504  502 -6.9351308811e+00 +8.7510235667e+01 -3.9105900288e+01 9.6101034459e+01 0.0000000000e+00 0.0000e+00 -1.0000e+00
       21  1    1    2  505  501 -4.9479953345e+01 +4.5452030348e+01 -3.3308154582e+00 6.7269957466e+01 0.0000000000e+00 0.0000e+00 -1.0000e+00
<mgrwt>
<rscale>  4 0.23572720E+03</rscale>
<asrwt>0</asrwt>
<pdfrwt beam="1">  1       21 0.50392920E-01 0.23572720E+03</pdfrwt>
<pdfrwt beam="2">  1       21 0.51362816E-01 0.23572720E+03</pdfrwt>
<totfact> 0.13152648E+04</totfact>
</mgrwt>
</event>
<event>
 6      1 +2.5196620e+02 2.08451300e+02 7.54677100e-03 9.49153200e-02
       21 -1    0    0  505  502 +0.0000000000e+00 +0.0000000000e+00 +3.0871612163e+02 3.0871612163e+02 0.0000000000e+00 0.0000e+00 1.0000e+00
       21 -1    0    0  501  503 -0.0000000000e+00 -0.0000000000e+00 -5.2684312357e+02 5.2684312357e+02 0.0000000000e+00 0.0000e+00 1.0000e+00
        6  1    1    2  501    0 +3.0174379492e+01 -1.2560812415e+02 -3.1965139238e+02 3.8573813226e+02 1.7300000000e+02 0.0000e+00 1.0000e+00
       -6  1    1    2    0  502 -1.1813102556e+02 +3.6154307691e+01 +2.4720339208e+00 2.1259629375e+02 1.7300000000e+02 0.0000e+00 1.0000e+00
       21  1    1    2  504  503 +9.0865395203e+01 +5.1684456776e+01 -2.5028252130e+01 1.0749054155e+02 0.0000000000e+00 0.0000e+00 1.0000e+00
       21  1    1    2  505  504 -2.9087491342e+00 +3.7769359684e+01 +1.2408060865e+02 1.2973427764e+02 0.0000000000e+00 0.0000e+00 1.0000e+00
<mgrwt>
<rscale>  4 0.20845127E+03</rscale>
<asrwt>0</asrwt>
<pdfrwt beam="1">  1       21 0.47494788E-01 0.20845127E+03</pdfrwt>
<pdfrwt beam="2">  1       21 0.81052789E-01 0.20845127E+03</pdfrwt>
<totfact> 0.55937535E+03</totfact>
</mgrwt>
</event>
<event>
 6      1 +2.5196620e+02 1.94112200e+02 7.54677100e-03 1.16268000e-01
       21 -1    0    0  501  502 +0.0000000000e+00 +0.0000000000e+00 +1.9051451812e+03 1.9051451812e+03 0.0000000000e+00 0.0000e+00 -1.0000e+00
       21 -1    0    0  505  503 -0.0000000000e+00 -0.0000000000e+00 -5.5363812439e+01 5.5363812439e+01 0.0000000000e+00 0.0000e+00 -1.0000e+00
        6  1    1    2  501    0 +1.6289200692e+01 +8.9371833707e+01 +1.3891345664e+03 1.4028102175e+03 1.7300000000e+02 0.0000e+00 -1.0000e+00
       -6  1    1    2    0  503 -2.9016561987e+01 -2.6832755695e+01 +1.5207504944e+02 2.3370446789e+02 1.7300000000e+02 0.0000e+00 -1.0000e+00
       21  1    1    2  504  502 +2.7829847631e+01 +2.1067979081e+00 +1.4130826372e+02 1.4403806584e+02 0.0000000000e+00 0.0000e+00 -1.0000e+00
       21  1    1    2  505  504 -1.5102486335e+01 -6.4645875921e+01 +1.6726348921e+02 1.7995624243e+02 0.0000000000e+00 0.0000e+00 -1.0000e+00
<mgrwt>
<rscale>  4 0.19411217E+03</rscale>
<asrwt>0</asrwt>
<pdfrwt beam="1">  1       21 0.29309921E+00 0.19411217E+03</pdfrwt>
<pdfrwt beam="2">  1       21 0.85175111E-02 0.19411217E+03</pdfrwt>
<totfact> 0.40168213E+03</totfact>
</mgrwt>
</event>
<event>
 6      1 +2.5196620e+02 3.12522400e+02 7.54677100e-03 1.06301000e-01
       21 -1    0    0  501  502 +0.0000000000e+00 +0.0000000000e+00 +3.8955532761e+02 3.8955532761e+02 0.0000000000e+00 0.0000e+00 -1.0000e+00
       21 -1    0    0  504  503 -0.0000000000e+00 -0.0000000000e+00 -4.8546925541e+02 4.8546925541e+02 0.0000000000e+00 0.0000e+00 1.0000e+00
        6  1    1    2  501    0 +2.5629325709e+02 +1.0822112348e+02 +2.0040593293e+02 3.8404372557e+02 1.7300000000e+02 0.0000e+00 -1.0000e+00
       -6  1    1    2    0  503 -2.1138116798e+02 -1.1278587940e+02 -2.7708078147e+02 4.0509926219e+02 1.7300000000e+02 0.0000e+00 1.0000e+00
       21  1    1    2  504  505 -2.3738752510e+01 -2.6897120456e+00 -4.5491570390e+01 5.1383323152e+01 0.0000000000e+00 0.0000e+00 -1.0000e+00
       21  1    1    2  505  502 -2.1173336599e+01 +7.2544679624e+00 +2.6252491136e+01 3.4498272116e+01 0.0000000000e+00 0.0000e+00 -1.0000e+00
<mgrwt>
<rscale>  4 0.31252244E+03</rscale>
<asrwt>0</asrwt>
<pdfrwt beam="1">  1       21 0.59931589E-01 0.31252244E+03</pdfrwt>
<pdfrwt beam="2">  1       21 0.74687578E-01 0.31252244E+03</pdfrwt>
<totfact> 0.38586454E+03</totfact>
</mgrwt>
</event>
<event>
 6      1 +2.5196620e+02 1.85783400e+02 7.54677100e-03 1.14954000e-01
       21 -1    0    0  505  502 +0.0000000000e+00 +0.0000000000e+00 +1.2848423038e+02 1.2848423038e+02 0.0000000000e+00 0.0000e+00 -1.0000e+00
       21 -1    0    0  502  503 -0.0000000000e+00 -0.0000000000e+00 -5.9547201231e+02 5.9547201231e+02 0.0000000000e+00 0.0000e+00 -1.0000e+00
        6  1    1    2  501    0 +3.7981536042e+00 +6.4073817238e+00 -3.4900531788e+02 3.8960132497e+02 1.7300000000e+02 0.0000e+00 -1.0000e+00
       -6  1    1    2    0  503 -7.6624912584e+01 +3.9661660429e+01 -1.0349243238e+01 1.9359889300e+02 1.7300000000e+02 0.0000e+00 -1.0000e+00
       21  1    1    2  504  501 +5.3371742110e+01 -1.8165406868e+01 -7.2673189921e+01 9.1977809258e+01 0.0000000000e+00 0.0000e+00 -1.0000e+00
       21  1    1    2  505  504 +1.9455016870e+01 -2.7903635285e+01 -3.4960030898e+01 4.8778215465e+01 0.0000000000e+00 0.0000e+00 -1.0000e+00
<mgrwt>
<rscale>  4 0.18578337E+03</rscale>
<asrwt>0</asrwt>
<pdfrwt beam="1">  1       21 0.19766805E-01 0.18578337E+03</pdfrwt>
<pdfrwt beam="2">  1       21 0.91611077E-01 0.18578337E+03</pdfrwt>
<totfact> 0.23884163E+04</totfact>
</mgrwt>
</event>
<event>
 6      1 +2.5196620e+02 2.33159100e+02 7.54677100e-03 1.09711200e-01
       21 -1    0    0  501  502 +0.0000000000e+00 +0.0000000000e+00 +4.0425599710e+02 4.0425599710e+02 0.0000000000e+00 0.0000e+00 1.0000e+00
       21 -1    0    0  505  503 -0.0000000000e+00 -0.0000000000e+00 -2.7062978337e+02 2.7062978337e+02 0.0000000000e+00 0.0000e+00 -1.0000e+00
        6  1    1    2  501    0 -7.1221678203e+00 -1.4863067201e+02 +4.8982020949e+01 2.3338817518e+02 1.7300000000e+02 0.0000e+00 1.0000e+00
       -6  1    1    2    0  503 -6.5530628188e+01 +1.5330071322e+02 -8.5821401679e+01 2.5512680159e+02 1.7300000000e+02 0.0000e+00 1.0000e+00
       21  1    1    2  504  502 +2.3396315001e+01 -4.6304440487e-01 +7.9093132052e+01 8.2482273875e+01 0.0000000000e+00 0.0000e+00 1.0000e+00
       21  1    1    2  505  504 +4.9256481007e+01 -4.2069968119e+00 +9.1372462404e+01 1.0388852982e+02 0.0000000000e+00 0.0000e+00 1.0000e+00
<mgrwt>
<rscale>  4 0.23315910E+03</rscale>
<asrwt>0</asrwt>
<pdfrwt beam="1">  1       21 0.62193230E-01 0.23315910E+03</pdfrwt>
<pdfrwt beam="2">  1       21 0.41635351E-01 0.23315910E+03</pdfrwt>
<totfact> 0.12991023E+04</totfact>
</mgrwt>
</event>
<event>
 6      1 +2.5196620e+02 3.04469900e+02 7.54677100e-03 9.49153200e-02
       21 -1    0    0  504  502 +0.0000000000e+00 +0.0000000000e+00 +5.4865210465e+02 5.4865210465e+02 0.0000000000e+00 0.0000e+00 -1.0000e+00
       21 -1    0    0  501  503 -0.0000000000e+00 -0.0000000000e+00 -4.1437309563e+02 4.1437309563e+02 0.0000000000e+00 0.0000e+00 1.0000e+00
        6  1    1    2  501    0 +2.2640578057e+02 -2.4840939655e+01 -6.5274882294e+01 2.9337085747e+02 1.7300000000e+02 0.0000e+00 -1.0000e+00
       -6  1    1    2    0  505 -2.7412879590e+02 -7.6047723207e+01 -9.1900821556e+01 3.4540499989e+02 1.7300000000e+02 0.0000e+00 1.0000e+00
       21  1    1    2  504  503 +1.1193849609e+01 +1.8940409866e+01 +3.0504515351e+00 2.2211408094e+01 0.0000000000e+00 0.0000e+00 -1.0000e+00
       21  1    1    2  505  502 +3.6529165729e+01 +8.1948252996e+01 +2.8840426133e+02 3.0203793483e+02 0.0000000000e+00 0.0000e+00 -1.0000e+00
<mgrwt>
<rscale>  4 0.30446987E+03</rscale>
<asrwt>0</asrwt>
<pdfrwt beam="1">  1       21 0.84408016E-01 0.30446987E+03</pdfrwt>
<pdfrwt beam="2">  1       21 0.63749707E-01 0.30446987E+03</pdfrwt>
<totfact> 0.25601903E+03</totfact>
</mgrwt>
</event>
<event>
 6      1 +2.5196620e+02 2.24318100e+02 7.54677100e-03 1.07655700e-01
       21 -1    0    0  501  502 +0.0000000000e+00 +0.0000000000e+00 +7.2179848913e+02 7.2179848913e+02 0.0000000000e+00 0.0000e+00 1.0000e+00
       21 -1    0    0  504  503 -0.0000000000e+00 -0.0000000000e+00 -2.1946291584e+02 2.1946291584e+02 0.0000000000e+00 0.0000e+00 1.0000e+00
        6  1    1    2  501    0 +4.6681666685e+01 -1.1760459802e+02 +3.0811040779e+02 3.7532791379e+02 1.7300000000e+02 0.0000e+00 1.0000e+00
       -6  1    1    2    0  505 -2.4085671718e+02 +7.8061616375e+01 +1.1439916857e+02 3.2729458280e+02 1.7300000000e+02 0.0000e+00 1.0000e+00
       21  1    1    2  504  502 +1.9856854627e+02 +1.5806682711e+01 +7.9561696429e+01 2.1449797744e+02 0.0000000000e+00 0.0000e+00 1.0000e+00
       21  1    1    2  505  503 -4.3934957805e+00 +2.3736298932e+01 +2.6430050179e-01 2.4140930946e+01 0.0000000000e+00 0.0000e+00 1.0000e+00
<mgrwt>
<rscale>  4 0.22431807E+03</rscale>
<asrwt>0</asrwt>
<pdfrwt beam="1">  1       21 0.11104592E+00 0.22431807E+03</pdfrwt>
<pdfrwt beam="2">  1       21 0.33763526E-01 0.22431807E+03</pdfrwt>
<totfact> 0.52659155E+03</totfact>
</mgrwt>
</event>
<event>
 6      1 +2.5196620e+02 1.85251200e+02 7.54677100e-03 9.49153200e-02
       21 -1    0    0  505  502 +0.0000000000e+00 +0.0000000000e+00 +3.1820413621e+02 3.1820413621e+02 0.0000000000e+00 0.0000e+00 -1.0000e+00
       21 -1    0    0  504  503 -0.0000000000e+00 -0.0000000000e+00 -6.0111936635e+02 6.0111936635e+02 0.0000000000e+00 0.0000e+00 -1.0000e+00
        6  1    1    2  501    0 +1.0773136900e+02 -1.4797062505e+02 -9.3125813864e+01 2.6851959137e+02 1.7300000000e+02 0.0000e+00 -1.0000e+00
       -6  1    1    2    0  502 +1.9360303762e+01 +4.3363556464e+01 +1.1383152340e+02 2.1246607991e+02 1.7300000000e+02 0.0000e+00 -1.0000e+00
       21  1    1    2  504  501 +1.5062407510e+01 -1.3347571336e+01 -2.4313717240e+02 2.4396868320e+02 0.0000000000e+00 0.0000e+00 -1.0000e+00
       21  1    1    2  505  503 -1.4215408027e+02 +1.1795463992e+02 -6.0483767286e+01 1.9436914807e+02 0.0000000000e+00 0.0000e+00 -1.0000e+00
<mgrwt>
<rscale>  4 0.18525125E+03</rscale>
<asrwt>0</asrwt>
<pdfrwt beam="1">  1       21 0.48954483E-01 0.18525125E+03</pdfrwt>
<pdfrwt beam="2">  1       21 0.92479901E-01 0.18525125E+03</pdfrwt>
<totfact> 0.39515434E+03</totfact>
</mgrwt>
</event>
<event>
 6      1 +2.5196620e+02 1.78217300e+02 7.54677100e-03 1.06301000e-01
       21 -1    0    0  505  502 +0.0000000000e+00 +0.0000000000e+00 +1.8007730993e+02 1.8007730993e+02 0.0000000000e+00 0.0000e+00 1.0000e+00
       21 -1    0    0  504  503 -0.0000000000e+00 -0.0000000000e+00 -4.5168557993e+02 4.5168557993e+02 0.0000000000e+00 0.0000e+00 1.0000e+00
        6  1    1    2  501    0 +5.5663366743e+01 -1.0397677862e+01 -3.5557589011e+01 1.8547200392e+02 1.7300000000e+02 0.0000e+00 1.0000e+00
       -6  1    1    2    0  502 -2.2206260611e+01 -6.3858546733e+01 -8.4329715987e+01 2.0398905118e+02 1.7300000000e+02 0.0000e+00 -1.0000e+00
       21  1    1    2  504  501 +2.4757067097e+01 +4.1241889308e+01 -1.6688687212e+02 1.7368083916e+02 0.0000000000e+00 0.0000e+00 1.0000e+00
       21  1    1    2  505  503 -5.8214173229e+01 +3.3014335287e+01 +1.5165907118e+01 6.8620995606e+01 0.0000000000e+00 0.0000e+00 1.0000e+00
<mgrwt>
<rscale>  4 0.17821734E+03</rscale>
<asrwt>0</asrwt>
<pdfrwt beam="1">  1       21 0.27704202E-01 0.17821734E+03</pdfrwt>
<pdfrwt beam="2">  1       21 0.69490089E-01 0.17821734E+03</pdfrwt>
<totfact> 0.23614428E+04</totfact>
</mgrwt>
</event>
<event>
 6      1 +2.5196620e+02 1.76566500e+02 7.54677100e-03 1.16128000e-01
       21 -1    0    0  501  502 +0.0000000000e+00 +0.0000000000e+00 +1.9146831259e+02 1.9146831259e+02 0.0000000000e+00 0.0000e+00 1.0000e+00
       21 -1    0    0  502  503 -0.0000000000e+00 -0.0000000000e+00 -6.4351417737e+02 6.4351417737e+02 0.0000000000e+00 0.0000e+00 1.0000e+00
        6  1    1    2  501    0 +2.0245913049e+01 +3.9932215203e+01 +4.5912521188e+01 1.8450322059e+02 1.7300000000e+02 0.0000e+00 1.0000e+00
       -6  1    1    2    0  505 -2.9924569365e+01 -3.7970054596e+00 -3.8359006646e+01 1.7975068983e+02 1.7300000000e+02 0.0000e+00 -1.0000e+00
       21  1    1    2  504  503 +4.3024956292e+01 -3.0230119312e+01 -3.8773878055e+02 3.9128808941e+02 0.0000000000e+00 0.0000e+00 1.0000e+00
       21  1    1    2  505  504 -3.3346299976e+01 -5.9050904315e+00 -7.1860598776e+01 7.9440490127e+01 0.0000000000e+00 0.0000e+00 1.0000e+00
<mgrwt>
<rscale>  4 0.17656649E+03</rscale>
<asrwt>0</asrwt>
<pdfrwt beam="1">  1       21 0.29456664E-01 0.17656649E+03</pdfrwt>
<pdfrwt beam="2">  1       21 0.99002179E-01 0.17656649E+03</pdfrwt>
<totfact> 0.93918612E+03</totfact>
</mgrwt>
</event>
<event>
 6      1 +2.5196620e+02 2.33462000e+02 7.54677100e-03 1.11396600e-01
       21 -1    0    0  505  502 +0.0000000000e+00 +0.0000000000e+00 +9.0704776380e+02 9.0704776380e+02 0.0000000000e+00 0.0000e+00 -1.0000e+00
       21 -1    0    0  501  503 -0.0000000000e+00 -0.0000000000e+00 -1.0350799501e+02 1.0350799501e+02 0.0000000000e+00 0.0000e+00 -1.0000e+00
        6  1    1    2  501    0 -2.1383873135e+01 -5.1659437139e+01 +1.5361548206e+02 2.3801824259e+02 1.7300000000e+02 0.0000e+00 -1.0000e+00
       -6  1    1    2    0  502 -6.5568300627e+01 -1.1500051216e+02 +4.1378146350e+02 4.6761995186e+02 1.7300000000e+02 0.0000e+00 -1.0000e+00
       21  1    1    2  504  503 +6.2696631621e+01 +1.1947220291e+02 +1.3591790677e+02 1.9151541000e+02 0.0000000000e+00 0.0000e+00 -1.0000e+00
       21  1    1    2  505  504 +2.4255542141e+01 +4.7187746392e+01 +1.0022491647e+02 1.1340215437e+02 0.0000000000e+00 0.0000e+00 -1.0000e+00
<mgrwt>
<rscale>  4 0.21931417E+03</rscale>
<asrwt>0</asrwt>
<pdfrwt beam="1">  1       21 0.13954580E+00 0.23346196E+03</pdfrwt>
<pdfrwt beam="2">  1       21 0.15924308E-01 0.23346196E+03</pdfrwt>
<totfact> 0.12346713E+04</totfact>
</mgrwt>
</event>
<event>
 6      1 +2.5196620e+02 2.00791800e+02 7.54677100e-03 1.09711200e-01
       21 -1    0    0  501  502 +0.0000000000e+00 +0.0000000000e+00 +4.5986910924e+01 4.5986910924e+01 0.0000000000e+00 0.0000e+00 -1.0000e+00
       21 -1    0    0  505  503 -0.0000000000e+00 -0.0000000000e+00 -1.6273695996e+03 1.6273695996e+03 0.0000000000e+00 0.0000e+00 -1.0000e+00
        6  1    1    2  501    0 +3.5196726468e+01 +9.1051086386e+01 -3.8837664525e+02 4.3622761085e+02 1.7300000000e+02 0.0000e+00 -1.0000e+00
       -6  1    1    2    0  503 -5.8814964987e+01 -8.6524109769e+01 -9.5524990455e+02 9.7641026307e+02 1.7300000000e+02 0.0000e+00 -1.0000e+00
       21  1    1    2  504  502 -1.3778731438e+01 +4.3708661737e+01 -9.5803857066e+01 1.0620112796e+02 0.0000000000e+00 0.0000e+00 1.0000e+00
       21  1    1    2  505  504 +3.7396969957e+01 -4.8235638353e+01 -1.4195228175e+02 1.5451750860e+02 0.0000000000e+00 0.0000e+00 -1.0000e+00
<mgrwt>
<rscale>  4 0.20079177E+03</rscale>
<asrwt>0</asrwt>
<pdfrwt beam="1">  1       21 0.70749097E-02 0.20079177E+03</pdfrwt>
<pdfrwt beam="2">  1       21 0.25036454E+00 0.20079177E+03</pdfrwt>
<totfact> 0.97506904E+03</totfact>
</mgrwt>
</event>
<event>
 6      1 +2.5196620e+02 1.98036800e+02 7.54677100e-03 1.02776600e-01
       21 -1    0    0  501  502 +0.0000000000e+00 +0.0000000000e+00 +6.5864218954e+02 6.5864218954e+02 0.0000000000e+00 0.0000e+00 -1.0000e+00
       21 -1    0    0  505  503 -0.0000000000e+00 -0.0000000000e+00 -1.5100847446e+03 1.5100847446e+03 0.0000000000e+00 0.0000e+00 -1.0000e+00
        6  1    1    2  501    0 +5.4997428544e+01 -6.0967030148e+01 +2.7486983582e+02 3.3499869038e+02 1.7300000000e+02 0.0000e+00 1.0000e+00
       -6  1    1    2    0  503 -1.0845829636e+02 +4.2022320904e+01 +3.2179124611e+02 3.8341581028e+02 1.7300000000e+02 0.0000e+00 -1.0000e+00
       21  1    1    2  504  502 +2.5000428928e+01 -1.7579304644e+01 -3.8977347887e+02 3.9096984312e+02 0.0000000000e+00 0.0000e+00 1.0000e+00
       21  1    1    2  505  504 +2.8460438892e+01 +3.6524013888e+01 -1.0583301581e+03 1.0593425903e+03 0.0000000000e+00 0.0000e+00 -1.0000e+00
<mgrwt>
<rscale>  4 0.19803680E+03</rscale>
<asrwt>0</asrwt>
<pdfrwt beam="1">  1       21 0.10132957E+00 0.19803680E+03</pdfrwt>
<pdfrwt beam="2">  1       21 0.23232073E+00 0.19803680E+03</pdfrwt>
<totfact> 0.66812837E+01</totfact>
</mgrwt>
</event>
<event>
 6      1 +2.5196620e+02 2.32956300e+02 7.54677100e-03 9.49153200e-02
       21 -1    0    0  505  502 +0.0000000000e+00 +0.0000000000e+00 +3.6918769974e+02 3.6918769974e+02 0.0000000000e+00 0.0000e+00 -1.0000e+00
       21 -1    0    0  501  503 -0.0000000000e+00 -0.0000000000e+00 -6.6832731944e+02 6.6832731944e+02 0.0000000000e+00 0.0000e+00 -1.0000e+00
        6  1    1    2  501    0 +7.6134896590e+01 -1.8006214464e+02 -5.4059207263e+01 2.6659012791e+02 1.7300000000e+02 0.0000e+00 -1.0000e+00
       -6  1    1    2    0  502 -1.2921653281e+01 +1.4831413299e+02 -2.7784751500e+02 3.5957237486e+02 1.7300000000e+02 0.0000e+00 -1.0000e+00
       21  1    1    2  504  503 -2.0975005077e+01 -1.4477337282e+01 -1.8398256935e+02 1.8573941412e+02 0.0000000000e+00 0.0000e+00 -1.0000e+00
       21  1    1    2  505  504 -4.2238238232e+01 +4.6225348934e+01 +2.1674967191e+02 2.2561310229e+02 0.0000000000e+00 0.0000e+00 -1.0000e+00
<mgrwt>
<rscale>  4 0.23295632E+03</rscale>
<asrwt>0</asrwt>
<pdfrwt beam="1">  1       21 0.56798108E-01 0.23295632E+03</pdfrwt>
<pdfrwt beam="2">  1       21 0.10281959E+00 0.23295632E+03</pdfrwt>
<totfact> 0.21635771E+03</totfact>
</mgrwt>
</event>
<event>
 6      1 +2.5196620e+02 1.88489900e+02 7.54677100e-03 9.49153200e-02
       21 -1    0    0  504  502 +0.0000000000e+00 +0.0000000000e+00 +6.9700287057e+01 6.9700287057e+01 0.0000000000e+00 0.0000e+00 -1.0000e+00
       21 -1    0    0  501  503 -0.0000000000e+00 -0.0000000000e+00 -1.0538147256e+03 1.0538147256e+03 0.0000000000e+00 0.0000e+00 1.0000e+00
        6  1    1    2  501    0 -7.3877365546e+01 -6.4424990130e+01 -6.1928630289e+02 6.5042522202e+02 1.7300000000e+02 0.0000e+00 1.0000e+00
       -6  1    1    2    0  505 +2.2604270540e+01 +1.5583885589e+01 -2.0850637350e+02 2.7231914793e+02 1.7300000000e+02 0.0000e+00 -1.0000e+00
       21  1    1    2  504  503 +5.9439331031e+01 -6.0206860892e+00 -1.2118589026e+02 1.3511218573e+02 0.0000000000e+00 0.0000e+00 1.0000e+00
       21  1    1    2  505  502 -8.1662360248e+00 +5.4861790630e+01 -3.5135871931e+01 6.5658457020e+01 0.0000000000e+00 0.0000e+00 -1.0000e+00
<mgrwt>
<rscale>  4 0.18848994E+03</rscale>
<asrwt>0</asrwt>
<pdfrwt beam="1">  1       21 0.10723122E-01 0.18848994E+03</pdfrwt>
<pdfrwt beam="2">  1       21 0.16212533E+00 0.18848994E+03</pdfrwt>
<totfact> 0.17467626E+04</totfact>
</mgrwt>
</event>
<event>
 6      1 +2.5196620e+02 2.04002600e+02 7.54677100e-03 1.14954000e-01
       21 -1    0    0  504  502 +0.0000000000e+00 +0.0000000000e+00 +2.9947421500e+02 2.9947421500e+02 0.0000000000e+00 0.0000e+00 1.0000e+00
       21 -1    0    0  502  503 -0.0000000000e+00 -0.0000000000e+00 -7.1776324011e+02 7.1776324011e+02 0.0000000000e+00 0.0000e+00 -1.0000e+00
        6  1    1    2  501    0 +2.2139768215e+01 -1.3281309136e+02 -2.9973731549e+02 3.7135016476e+02 1.7300000000e+02 0.0000e+00 1.0000e+00
       -6  1    1    2    0  503 +9.5774364887e+01 +7.1669591833e+01 -3.2961308500e+02 3.9100261529e+02 1.7300000000e+02 0.0000e+00 -1.0000e+00
       21  1    1    2  504  505 -7.4386303552e+01 +1.9186761371e+01 +8.1989295010e+01 1.1235523336e+02 0.0000000000e+00 0.0000e+00 1.0000e+00
       21  1    1    2  505  501 -4.3527829550e+01 +4.1956738153e+01 +1.2907208036e+02 1.4252944170e+02 0.0000000000e+00 0.0000e+00 1.0000e+00
<mgrwt>
<rscale>  4 0.20400255E+03</rscale>
<asrwt>0</asrwt>
<pdfrwt beam="1">  1       21 0.46072957E-01 0.20400255E+03</pdfrwt>
<pdfrwt beam="2">  1       21 0.11042511E+00 0.20400255E+03</pdfrwt>
<totfact> 0.28925053E+03</totfact>
</mgrwt>
</event>
<event>
 6      1 +2.5196620e+02 2.23733700e+02 7.54677100e-03 9.28652600e-02
       21 -1    0    0  503  502 +0.0000000000e+00 +0.0000000000e+00 +1.5163339705e+03 1.5163339705e+03 0.0000000000e+00 0.0000e+00 1.0000e+00
       21 -1    0    0  504  503 -0.0000000000e+00 -0.0000000000e+00 -1.0550930356e+02 1.0550930356e+02 0.0000000000e+00 0.0000e+00 1.0000e+00
        6  1    1    2  501    0 -7.4067393441e+01 -1.9885381156e+01 +2.8199063865e+02 3.3960142438e+02 1.7300000000e+02 0.0000e+00 1.0000e+00
       -6  1    1    2    0  502 +1.7360198466e+02 -1.4387247125e+01 +1.1021963135e+03 1.1292078442e+03 1.7300000000e+02 0.0000e+00 1.0000e+00
       21  1    1    2  504  505 +1.8696111932e+01 -7.1200130708e+00 -1.0208870469e+01 2.2460191979e+01 0.0000000000e+00 0.0000e+00 1.0000e+00
       21  1    1    2  505  501 -1.1823070315e+02 +4.1392641352e+01 +3.6846585269e+01 1.3057381350e+02 0.0000000000e+00 0.0000e+00 1.0000e+00
<mgrwt>
<rscale>  4 0.22373368E+03</rscale>
<asrwt>0</asrwt>
<pdfrwt beam="1">  1       21 0.23328213E+00 0.22373368E+03</pdfrwt>
<pdfrwt beam="2">  1       21 0.16232202E-01 0.22373368E+03</pdfrwt>
<totfact> 0.27499802E+03</totfact>
</mgrwt>
</event>
<event>
 6      1 +2.5196620e+02 2.66254200e+02 7.54677100e-03 1.09711200e-01
       21 -1    0    0  501  502 +0.0000000000e+00 +0.0000000000e+00 +1.6348951580e+02 1.6348951580e+02 0.0000000000e+00 0.0000e+00 1.0000e+00
       21 -1    0    0  505  503 -0.0000000000e+00 -0.0000000000e+00 -8.1392434842e+02 8.1392434842e+02 0.0000000000e+00 0.0000e+00 -1.0000e+00
        6  1    1    2  501    0 +2.0079188562e+02 +8.5063723364e+00 -4.4343844556e+02 5.1667823130e+02 1.7300000000e+02 0.0000e+00 -1.0000e+00
       -6  1    1    2    0  503 -2.0037689308e+02 +1.0366866124e+02 -1.6816679059e+02 3.3031372975e+02 1.7300000000e+02 0.0000e+00 1.0000e+00
       21  1    1    2  504  502 -2.2710183450e+01 -2.2472521638e+01 -7.4249668155e+00 3.2800865740e+01 0.0000000000e+00 0.0000e+00 1.0000e+00
       21  1    1    2  505  504 +2.2295190904e+01 -8.9702511937e+01 -3.1404629647e+01 9.7621037428e+01 0.0000000000e+00 0.0000e+00 1.0000e+00
<mgrwt>
<rscale>  4 0.26625424E+03</rscale>
<asrwt>0</asrwt>
<pdfrwt beam="1">  1       21 0.25152233E-01 0.26625424E+03</pdfrwt>
<pdfrwt beam="2">  1       21 0.12521913E+00 0.26625424E+03</pdfrwt>
<totfact> 0.67662225E+03</totfact>
</mgrwt>
</event>
<event>
 6      1 +2.5196620e+02 2.25627900e+02 7.54677100e-03 9.49153200e-02
       21 -1    0    0  505  502 +0.0000000000e+00 +0.0000000000e+00 +7.6765271514e+02 7.6765271514e+02 0.0000000000e+00 0.0000e+00 1.0000e+00
       21 -1    0    0  504  503 -0.0000000000e+00 -0.0000000000e+00 -1.7637663399e+02 1.7637663399e+02 0.0000000000e+00 0.0000e+00 -1.0000e+00
        6  1    1    2  501    0 +5.8381324250e+01 -8.0471663100e+00 +1.6313814896e+02 2.4498202292e+02 1.7300000000e+02 0.0000e+00 -1.0000e+00
       -6  1    1    2    0  502 -2.1022652089e+02 +1.3268456826e+02 +1.3272701297e+02 3.3067483229e+02 1.7300000000e+02 0.0000e+00 -1.0000e+00
       21  1    1    2  504  501 +4.2799861404e+01 -3.4590587872e+01 +1.9595079120e+01 5.8414929866e+01 0.0000000000e+00 0.0000e+00 -1.0000e+00
       21  1    1    2  505  503 +1.0904533523e+02 -9.0046814075e+01 +2.7581584011e+02 3.0995756406e+02 0.0000000000e+00 0.0000e+00 1.0000e+00
<mgrwt>
<rscale>  4 0.22562793E+03</rscale>
<asrwt>0</asrwt>
<pdfrwt beam="1">  1       21 0.11810042E+00 0.22562793E+03</pdfrwt>
<pdfrwt beam="2">  1       21 0.27134867E-01 0.22562793E+03</pdfrwt>
<totfact> 0.69420323E+03</totfact>
</mgrwt>
</event>
<event>
 6      1 +2.5196620e+02 2.36104800e+02 7.54677100e-03 1.13287100e-01
       21 -1    0    0  504  502 +0.0000000000e+00 +0.0000000000e+00 +3.6057538761e+02 3.6057538761e+02 0.0000000000e+00 0.0000e+00 -1.0000e+00
       21 -1    0    0  505  503 -0.0000000000e+00 -0.0000000000e+00 -7.7094450744e+02 7.7094450744e+02 0.0000000000e+00 0.0000e+00 -1.0000e+00
        6  1    1    2  501    0 +8.4749816477e+01 -1.5303459153e+02 -4.2324086951e+02 4.8955485006e+02 1.7300000000e+02 0.0000e+00 -1.0000e+00
       -6  1    1    2    0  503 -1.1203955739e+02 +9.1462660410e+01 -1.8512717692e+02 2.9175221045e+02 1.7300000000e+02 0.0000e+00 -1.0000e+00
       21  1    1    2  504  501 +4.2389754776e+01 +3.7022490491e+01 -6.4805315372e+01 8.5832890040e+01 0.0000000000e+00 0.0000e+00 -1.0000e+00
       21  1    1    2  505  502 -1.5100013862e+01 +2.4549440627e+01 +2.6280424197e+02 2.6437994449e+02 0.0000000000e+00 0.0000e+00 -1.0000e+00
<mgrwt>
<rscale>  4 0.23610480E+03</rscale>
<asrwt>0</asrwt>
<pdfrwt beam="1">  1       21 0.55473136E-01 0.23610480E+03</pdfrwt>
<pdfrwt beam="2">  1       21 0.11860685E+00 0.23610480E+03</pdfrwt>
<totfact> 0.16025503E+03</totfact>
</mgrwt>
</event>
<event>
 6      1 +2.5196620e+02 2.38240100e+02 7.54677100e-03 1.09711200e-01
       21 -1    0    0  505  502 +0.0000000000e+00 +0.0000000000e+00 +1.8303511826e+02 1.8303511826e+02 0.0000000000e+00 0.0000e+00 -1.0000e+00
       21 -1    0    0  504  503 -0.0000000000e+00 -0.0000000000e+00 -1.0196800316e+03 1.0196800316e+03 0.0000000000e+00 0.0000e+00 1.0000e+00
        6  1    1    2  501    0 +1.0430805415e+02 +4.3835302237e+01 -3.2878240338e+02 3.8836654420e+02 1.7300000000e+02 0.0000e+00 1.0000e+00
       -6  1    1    2    0  503 -2.1279382525e+02 -5.5317938154e+01 -5.6957522847e+02 6.3457562767e+02 1.7300000000e+02 0.0000e+00 1.0000e+00
       21  1    1    2  504  502 -2.8937548103e+01 -7.6095525446e+00 +7.7829500943e+00 3.0917006523e+01 0.0000000000e+00 0.0000e+00 -1.0000e+00
       21  1    1    2  505  501 +1.3742331920e+02 +1.9092188461e+01 +5.3929768416e+01 1.4885597147e+02 0.0000000000e+00 0.0000e+00 -1.0000e+00
<mgrwt>
<rscale>  4 0.23824007E+03</rscale>
<asrwt>0</asrwt>
<pdfrwt beam="1">  1       21 0.28159249E-01 0.23824007E+03</pdfrwt>
<pdfrwt beam="2">  1       21 0.15687385E+00 0.23824007E+03</pdfrwt>
<totfact> 0.30780408E+03</totfact>
</mgrwt>
</event>
<event>
 6      1 +2.5196620e+02 1.92168500e+02 7.54677100e-03 9.49153200e-02
       21 -1    0    0  505  502 +0.0000000000e+00 +0.0000000000e+00 +7.4978901885e+01 7.4978901885e+01 0.0000000000e+00 0.0000e+00 1.0000e+00
       21 -1    0    0  501  503 -0.0000000000e+00 -0.0000000000e+00 -8.6939472110e+02 8.6939472110e+02 0.0000000000e+00 0.0000e+00 1.0000e+00
        6  1    1    2  501    0 +7.7051719122e+01 +3.4568084873e+01 -3.5955012812e+02 4.0784459607e+02 1.7300000000e+02 0.0000e+00 1.0000e+00
       -6  1    1    2    0  502 -8.7141226693e+01 +1.9406601000e+01 -1.5518423446e+02 2.4896055145e+02 1.7300000000e+02 0.0000e+00 1.0000e+00
       21  1    1    2  504  503 +4.6430940743e+00 -2.3943418304e+01 -2.1107340134e+02 2.1247782557e+02 0.0000000000e+00 0.0000e+00 1.0000e+00
       21  1    1    2  505  504 +5.4464134969e+00 -3.0031267570e+01 -6.8608055288e+01 7.5090649899e+01 0.0000000000e+00 0.0000e+00 1.0000e+00
<mgrwt>
<rscale>  4 0.19216848E+03</rscale>
<asrwt>0</asrwt>
<pdfrwt beam="1">  1       21 0.11535216E-01 0.19216848E+03</pdfrwt>
<pdfrwt beam="2">  1       21 0.13375303E+00 0.19216848E+03</pdfrwt>
<totfact> 0.25337074E+04</totfact>
</mgrwt>
</event>
<event>
 6      1 +2.5196620e+02 1.85985000e+02 7.54677100e-03 1.16128000e-01
       21 -1    0    0  501  502 +0.0000000000e+00 +0.0000000000e+00 +1.7017961408e+02 1.7017961408e+02 0.0000000000e+00 0.0000e+00 -1.0000e+00
       21 -1    0    0  504  503 -0.0000000000e+00 -0.0000000000e+00 -3.3796728949e+02 3.3796728949e+02 0.0000000000e+00 0.0000e+00 -1.0000e+00
        6  1    1    2  501    0 -7.0937317633e+01 -3.3522279318e+01 +5.0554320329e+01 1.9657208741e+02 1.7300000000e+02 0.0000e+00 -1.0000e+00
       -6  1    1    2    0  503 +2.8959263471e+01 +3.1046638927e+01 -1.6418656372e+02 2.4225763236e+02 1.7300000000e+02 0.0000e+00 -1.0000e+00
       21  1    1    2  504  505 +2.0603279133e+01 -2.2084395405e+00 -3.2409059527e+01 3.8467121749e+01 0.0000000000e+00 0.0000e+00 -1.0000e+00
       21  1    1    2  505  502 +2.1374775029e+01 +4.6840799315e+00 -2.1746372497e+01 3.0850062060e+01 0.0000000000e+00 0.0000e+00 -1.0000e+00
<mgrwt>
<rscale>  4 0.18598497E+03</rscale>
<asrwt>0</asrwt>
<pdfrwt beam="1">  1       21 0.26181479E-01 0.18598497E+03</pdfrwt>
<pdfrwt beam="2">  1       21 0.51994968E-01 0.18598497E+03</pdfrwt>
<totfact> 0.48836970E+04</totfact>
</mgrwt>
</event>
<event>
 6      1 +2.5196620e+02 2.47713400e+02 7.54677100e-03 9.49153200e-02
       21 -1    0    0  505  502 +0.0000000000e+00 +0.0000000000e+00 +3.1449632262e+02 3.1449632262e+02 0.0000000000e+00 0.0000e+00 1.0000e+00
       21 -1    0    0  501  503 -0.0000000000e+00 -0.0000000000e+00 -6.4177950023e+02 6.4177950023e+02 0.0000000000e+00 0.0000e+00 1.0000e+00
        6  1    1    2  501    0 +1.7764326656e+02 -1.9072150392e+01 +7.2530001366e+01 2.5905690142e+02 1.7300000000e+02 0.0000e+00 1.0000e+00
       -6  1    1    2    0  502 +7.8167352851e+01 +1.9047885160e+01 -4.8974885157e+01 1.9697841597e+02 1.7300000000e+02 0.0000e+00 -1.0000e+00
       21  1    1    2  504  503 -8.3720974775e+01 -3.7803361140e+01 -3.0449530114e+02 3.1804981394e+02 0.0000000000e+00 0.0000e+00 1.0000e+00
       21  1    1    2  505  504 -1.7208964463e+02 +3.7827626373e+01 -4.6342992681e+01 1.8219069152e+02 0.0000000000e+00 0.0000e+00 1.0000e+00
<mgrwt>
<rscale>  4 0.22849882E+03</rscale>
<asrwt>0</asrwt>
<pdfrwt beam="1">  1       21 0.48384051E-01 0.24771342E+03</pdfrwt>
<pdfrwt beam="2">  1       21 0.98735306E-01 0.24771342E+03</pdfrwt>
<totfact> 0.33099210E+03</totfact>
</mgrwt>
</event>
<event>
 6      1 +2.5196620e+02 1.84304300e+02 7.54677100e-03 1.06301000e-01
       21 -1    0    0  501  502 +0.0000000000e+00 +0.0000000000e+00 +3.0402049612e+01 3.0402049612e+01 0.0000000000e+00 0.0000e+00 -1.0000e+00
       21 -1    0    0  504  503 -0.0000000000e+00 -0.0000000000e+00 -2.1949244176e+03 2.1949244176e+03 0.0000000000e+00 0.0000e+00 -1.0000e+00
        6  1    1    2  501    0 +4.5280479227e+01 -2.2794647330e+01 -8.2774871553e+02 8.4715220227e+02 1.7300000000e+02 0.0000e+00 -1.0000e+00
       -6  1    1    2    0  503 -6.8542902397e+01 +2.5911256138e+01 -7.1511120997e+02 7.3937985183e+02 1.7300000000e+02 0.0000e+00 -1.0000e+00
       21  1    1    2  504  505 +1.8828272106e+01 -6.3154047370e+01 -4.8504199185e+02 4.8949838752e+02 0.0000000000e+00 0.0000e+00 -1.0000e+00
       21  1    1    2  505  502 +4.4341510635e+00 +6.0037438562e+01 -1.3662045061e+02 1.4929602556e+02 0.0000000000e+00 0.0000e+00 -1.0000e+00
<mgrwt>
<rscale>  4 0.18430429E+03</rscale>
<asrwt>0</asrwt>
<pdfrwt beam="1">  1       21 0.46772374E-02 0.18430429E+03</pdfrwt>
<pdfrwt beam="2">  1       21 0.33768075E+00 0.18430429E+03</pdfrwt>
<totfact> 0.62863222E+03</totfact>
</mgrwt>
</event>
<event>
 6      1 +2.5196620e+02 2.01284900e+02 7.54677100e-03 9.49153200e-02
       21 -1    0    0  505  502 +0.0000000000e+00 +0.0000000000e+00 +3.0058056373e+02 3.0058056373e+02 0.0000000000e+00 0.0000e+00 1.0000e+00
       21 -1    0    0  501  503 -0.0000000000e+00 -0.0000000000e+00 -8.8360881188e+02 8.8360881188e+02 0.0000000000e+00 0.0000e+00 -1.0000e+00
        6  1    1    2  501    0 -9.8315349810e+01 -1.6892894363e+02 -1.4339323591e+02 2.9781456665e+02 1.7300000000e+02 0.0000e+00 1.0000e+00
       -6  1    1    2    0  502 +9.3512178746e+01 -5.0696065066e-01 -2.2694532283e+02 3.0029646041e+02 1.7300000000e+02 0.0000e+00 -1.0000e+00
       21  1    1    2  504  503 -2.2738736835e+01 -4.8285214493e+00 -3.5724046214e+02 3.5799596725e+02 0.0000000000e+00 0.0000e+00 -1.0000e+00
       21  1    1    2  505  504 +2.7541907899e+01 +1.7426442573e+02 +1.4455077273e+02 2.2808238131e+02 0.0000000000e+00 0.0000e+00 1.0000e+00
<mgrwt>
<rscale>  4 0.20128489E+03</rscale>
<asrwt>0</asrwt>
<pdfrwt beam="1">  1       21 0.46243164E-01 0.20128489E+03</pdfrwt>
<pdfrwt beam="2">  1       21 0.13593982E+00 0.20128489E+03</pdfrwt>
<totfact> 0.17149959E+03</totfact>
</mgrwt>
</event>
<event>
 6      1 +2.5196620e+02 5.73059300e+02 7.54677100e-03 1.12691600e-01
       21 -1    0    0  504  502 +0.0000000000e+00 +0.0000000000e+00 +1.3668337675e+03 1.3668337675e+03 0.0000000000e+00 0.0000e+00 1.0000e+00
       21 -1    0    0  501  503 -0.0000000000e+00 -0.0000000000e+00 -3.1881864524e+02 3.1881864524e+02 0.0000000000e+00 0.0000e+00 1.0000e+00
        6  1    1    2  501    0 -1.8716475510e+02 -1.3642626902e+02 +1.0963000152e+02 3.0917714933e+02 1.7300000000e+02 0.0000e+00 -1.0000e+00
       -6  1    1    2    0  505 -1.9647689595e+02 +1.0631616753e+01 -4.1963044836e+01 2.6534147631e+02 1.7300000000e+02 0.0000e+00 1.0000e+00
       21  1    1    2  504  503 +3.6264300182e+02 +2.2155226051e+02 +7.9903315777e+02 9.0501344637e+02 0.0000000000e+00 0.0000e+00 1.0000e+00
       21  1    1    2  505  502 +2.0998649240e+01 -9.5757608241e+01 +1.8131500782e+02 2.0612034074e+02 0.0000000000e+00 0.0000e+00 -1.0000e+00
<mgrwt>
<rscale>  4 0.57305927E+03</rscale>
<asrwt>0</asrwt>
<pdfrwt beam="1">  1       21 0.21028211E+00 0.57305927E+03</pdfrwt>
<pdfrwt beam="2">  1       21 0.49049023E-01 0.57305927E+03</pdfrwt>
<totfact> 0.35395881E+02</totfact>
</mgrwt>
</event>
<event>
 6      1 +2.5196620e+02 1.81261500e+02 7.54677100e-03 1.16726300e-01
       21 -1    0    0  504  502 +0.0000000000e+00 +0.0000000000e+00 +1.2309232626e+03 1.2309232626e+03 0.0000000000e+00 0.0000e+00 1.0000e+00
       21 -1    0    0  505  503 -0.0000000000e+00 -0.0000000000e+00 -1.1815117987e+02 1.1815117987e+02 0.0000000000e+00 0.0000e+00 1.0000e+00
        6  1    1    2  501    0 -3.0257054273e+01 +3.9119539674e+01 +1.0209178746e+03 1.0366523692e+03 1.7300000000e+02 0.0000e+00 1.0000e+00
       -6  1    1    2    0  503 +1.1087146909e+02 -3.8528593069e+01 +5.4872619860e+01 2.1614101775e+02 1.7300000000e+02 0.0000e+00 1.0000e+00
       21  1    1    2  504  501 -3.6969451229e+01 +1.7970716870e+01 +2.1507971656e+01 4.6392670043e+01 0.0000000000e+00 0.0000e+00 1.0000e+00
       21  1    1    2  505  502 -4.3644963589e+01 -1.8561663475e+01 +1.5473616523e+01 4.9888385482e+01 0.0000000000e+00 0.0000e+00 1.0000e+00
<mgrwt>
<rscale>  4 0.18126149E+03</rscale>
<asrwt>0</asrwt>
<pdfrwt beam="1">  1       21 0.18937280E+00 0.18126149E+03</pdfrwt>
<pdfrwt beam="2">  1       21 0.18177105E-01 0.18126149E+03</pdfrwt>
<totfact> 0.43883873E+03</totfact>
</mgrwt>
</event>
<event>
 6      1 +2.5196620e+02 2.63225300e+02 7.54677100e-03 9.28652600e-02
       21 -1    0    0  501  502 +0.0000000000e+00 +0.0000000000e+00 +2.5897242376e+02 2.5897242376e+02 0.0000000000e+00 0.0000e+00 -1.0000e+00
       21 -1    0    0  505  503 -0.0000000000e+00 -0.0000000000e+00 -4.1238364458e+02 4.1238364458e+02 0.0000000000e+00 0.0000e+00 -1.0000e+00
        6  1    1    2  501    0 -6.9358514735e+01 +1.8050587212e+02 -4.2427532017e+01 2.6291076225e+02 1.7300000000e+02 0.0000e+00 -1.0000e+00
       -6  1    1    2    0  504 +6.6050274680e+01 -1.9175693725e+02 +8.2063424032e-01 2.6657650911e+02 1.7300000000e+02 0.0000e+00 -1.0000e+00
       21  1    1    2  504  503 +2.8186312133e+01 -2.1153840579e+01 -8.7505390128e+01 9.4335287483e+01 0.0000000000e+00 0.0000e+00 -1.0000e+00
       21  1    1    2  505  502 -2.4878072079e+01 +3.2404905713e+01 -2.4298932915e+01 4.7533509501e+01 0.0000000000e+00 0.0000e+00 1.0000e+00
<mgrwt>
<rscale>  4 0.26322533E+03</rscale>
<asrwt>0</asrwt>
<pdfrwt beam="1">  1       21 0.39841912E-01 0.26322533E+03</pdfrwt>
<pdfrwt beam="2">  1       21 0.63443637E-01 0.26322533E+03</pdfrwt>
<totfact> 0.13394819E+04</totfact>
</mgrwt>
</event>
<event>
 6      1 +2.5196620e+02 2.48009700e+02 7.54677100e-03 1.16558800e-01
       21 -1    0    0  503  502 +0.0000000000e+00 +0.0000000000e+00 +7.7288144860e+02 7.7288144860e+02 0.0000000000e+00 0.0000e+00 -1.0000e+00
       21 -1    0    0  504  503 -0.0000000000e+00 -0.0000000000e+00 -1.8100487172e+02 1.8100487172e+02 0.0000000000e+00 0.0000e+00 1.0000e+00
        6  1    1    2  501    0 +2.9686152590e+00 -1.7688231525e+02 +1.3010536869e+01 2.4777901484e+02 1.7300000000e+02 0.0000e+00 1.0000e+00
       -6  1    1    2    0  505 +7.3708228583e+01 +1.8350101484e+02 +3.8867536064e+02 4.6915142691e+02 1.7300000000e+02 0.0000e+00 -1.0000e+00
       21  1    1    2  504  501 -4.9340441463e+01 +1.1664682221e+01 +7.4088461345e+00 5.1238998586e+01 0.0000000000e+00 0.0000e+00 -1.0000e+00
       21  1    1    2  505  502 -2.7336402380e+01 -1.8283381815e+01 +1.8278183324e+02 1.8571687998e+02 0.0000000000e+00 0.0000e+00 -1.0000e+00
<mgrwt>
<rscale>  4 0.24800967E+03</rscale>
<asrwt>0</asrwt>
<pdfrwt beam="1">  1       21 0.11890484E+00 0.24800967E+03</pdfrwt>
<pdfrwt beam="2">  1       21 0.27846904E-01 0.24800967E+03</pdfrwt>
<totfact> 0.63983686E+03</totfact>
</mgrwt>
</event>
<event>
 6      1 +2.5196620e+02 2.55243900e+02 7.54677100e-03 9.49153200e-02
       21 -1    0    0  505  502 +0.0000000000e+00 +0.0000000000e+00 +2.3600584256e+02 2.3600584256e+02 0.0000000000e+00 0.0000e+00 1.0000e+00
       21 -1    0    0  504  503 -0.0000000000e+00 -0.0000000000e+00 -1.4565566295e+03 1.4565566295e+03 0.0000000000e+00 0.0000e+00 1.0000e+00
        6  1    1    2  501    0 -1.5184862515e+02 -8.2121156191e+01 -7.6510475012e+02 8.0319123994e+02 1.7300000000e+02 0.0000e+00 1.0000e+00
       -6  1    1    2    0  502 +2.1048429344e+02 +6.5762568265e+01 -2.9857688915e+02 4.0951863438e+02 1.7300000000e+02 0.0000e+00 1.0000e+00
       21  1    1    2  504  501 -1.8765946595e+01 +2.6954435652e+01 -3.1485807825e+02 3.1656644136e+02 0.0000000000e+00 0.0000e+00 -1.0000e+00
       21  1    1    2  505  503 -3.9869721694e+01 -1.0595847725e+01 +1.5798893056e+02 1.6328615642e+02 0.0000000000e+00 0.0000e+00 1.0000e+00
<mgrwt>
<rscale>  4 0.25524387E+03</rscale>
<asrwt>0</asrwt>
<pdfrwt beam="1">  1       21 0.36308592E-01 0.25524387E+03</pdfrwt>
<pdfrwt beam="2">  1       21 0.22408563E+00 0.25524387E+03</pdfrwt>
<totfact> 0.64953190E+02</totfact>
</mgrwt>
</event>
<event>
 6      1 +2.5196620e+02 3.20558100e+02 7.54677100e-03 1.11396600e-01
       21 -1    0    0  504  502 +0.0000000000e+00 +0.0000000000e+00 +5.1468598287e+02 5.1468598287e+02 0.0000000000e+00 0.0000e+00 1.0000e+00
       21 -1    0    0  502  503 -0.0000000000e+00 -0.0000000000e+00 -1.3137491247e+03 1.3137491247e+03 0.0000000000e+00 0.0000e+00 1.0000e+00
        6  1    1    2  501    0 -3.8138426103e+01 +1.0120753633e+01 -3.0678342605e+02 3.5440378059e+02 1.7300000000e+02 0.0000e+00 -1.0000e+00
       -6  1    1    2    0  503 -1.3876451515e+02 -2.1499484757e+02 -9.1108372029e+02 9.6201918927e+02 1.7300000000e+02 0.0000e+00 1.0000e+00
       21  1    1    2  504  505 +4.3541413740e+01 +1.2120692272e+02 +2.4976389182e+02 2.8101418912e+02 0.0000000000e+00 0.0000e+00 1.0000e+00
       21  1    1    2  505  501 +1.3336152752e+02 +8.3667171214e+01 +1.6904011267e+02 2.3099794859e+02 0.0000000000e+00 0.0000e+00 1.0000e+00
<mgrwt>
<rscale>  4 0.27649972E+03</rscale>
<asrwt>0</asrwt>
<pdfrwt beam="1">  1       21 0.79182460E-01 0.32055809E+03</pdfrwt>
<pdfrwt beam="2">  1       21 0.20211525E+00 0.32055809E+03</pdfrwt>
<totfact> 0.16024274E+02</totfact>
</mgrwt>
</event>
<event>
 6      1 +2.5196620e+02 1.95849000e+02 7.54677100e-03 9.49153200e-02
       21 -1    0    0  504  502 +0.0000000000e+00 +0.0000000000e+00 +2.2839534422e+02 2.2839534422e+02 0.0000000000e+00 0.0000e+00 1.0000e+00
       21 -1    0    0  501  503 -0.0000000000e+00 -0.0000000000e+00 -9.3224872642e+02 9.3224872642e+02 0.0000000000e+00 0.0000e+00 1.0000e+00
        6  1    1    2  501    0 -7.2480779508e+01 +5.4461950427e+00 -6.0071522881e+02 6.2934164853e+02 1.7300000000e+02 0.0000e+00 -1.0000e+00
       -6  1    1    2    0  505 +1.9141481503e+02 -1.9391060792e+01 -1.3523561961e+02 2.9194745668e+02 1.7300000000e+02 0.0000e+00 -1.0000e+00
       21  1    1    2  504  503 +1.4390657872e+00 -2.4056752171e+01 -7.1881975532e+01 7.5814356436e+01 0.0000000000e+00 0.0000e+00 1.0000e+00
       21  1    1    2  505  502 -1.2037310131e+02 +3.8001617921e+01 +1.0397944175e+02 1.6354060900e+02 0.0000000000e+00 0.0000e+00 1.0000e+00
<mgrwt>
<rscale>  4 0.19584902E+03</rscale>
<asrwt>0</asrwt>
<pdfrwt beam="1">  1       21 0.35137745E-01 0.19584902E+03</pdfrwt>
<pdfrwt beam="2">  1       21 0.14342288E+00 0.19584902E+03</pdfrwt>
<totfact> 0.26167882E+03</totfact>
</mgrwt>
</event>
<event>
 6      1 +2.5196620e+02 1.77264900e+02 7.54677100e-03 1.16321900e-01
       21 -1    0    0  504  502 +0.0000000000e+00 +0.0000000000e+00 +1.1006876681e+03 1.1006876681e+03 0.0000000000e+00 0.0000e+00 -1.0000e+00
       21 -1    0    0  501  503 -0.0000000000e+00 -0.0000000000e+00 -1.1316823739e+02 1.1316823739e+02 0.0000000000e+00 0.0000e+00 1.0000e+00
        6  1    1    2  501    0 -6.0363938855e+01 -1.2394482956e+02 +3.2831907373e+02 3.9588955538e+02 1.7300000000e+02 0.0000e+00 -1.0000e+00
       -6  1    1    2    0  502 -6.0495526800e+01 -1.0431390102e+01 +5.5142010145e+02 5.8117265158e+02 1.7300000000e+02 0.0000e+00 -1.0000e+00
       21  1    1    2  504  505 +1.3938000105e+02 +9.9246241305e+01 +8.6024179006e+01 1.9151177635e+02 0.0000000000e+00 0.0000e+00 1.0000e+00
       21  1    1    2  505  503 -1.8520535396e+01 +3.5129978357e+01 +2.1756076555e+01 4.5281922197e+01 0.0000000000e+00 0.0000e+00 1.0000e+00
<mgrwt>
<rscale>  4 0.17726487E+03</rscale>
<asrwt>0</asrwt>
<pdfrwt beam="1">  1       21 0.16933656E+00 0.17726487E+03</pdfrwt>
<pdfrwt beam="2">  1       21 0.17410499E-01 0.17726487E+03</pdfrwt>
<totfact> 0.65253961E+03</totfact>
</mgrwt>
</event>
<event>
 6      1 +2.5196620e+02 1.86399500e+02 7.54677100e-03 1.06301000e-01
       21 -1    0    0  505  502 +0.0000000000e+00 +0.0000000000e+00 +1.1351705631e+02 1.1351705631e+02 0.0000000000e+00 0.0000e+00 -1.0000e+00
       21 -1    0    0  504  503 -0.0000000000e+00 -0.0000000000e+00 -6.0082016932e+02 6.0082016932e+02 0.0000000000e+00 0.0000e+00 -1.0000e+00
        6  1    1    2  501    0 +8.3591695404e+01 -4.8017568544e+01 -3.8716336881e+02 4.3487668663e+02 1.7300000000e+02 0.0000e+00 -1.0000e+00
       -6  1    1    2    0  503 -4.8911386094e+01 -7.1175912185e+00 -5.4398404651e+01 1.8796587516e+02 1.7300000000e+02 0.0000e+00 -1.0000e+00
       21  1    1    2  504  502 -1.4107782013e+01 +3.1881353092e+01 -4.9151143324e+01 6.0260145024e+01 0.0000000000e+00 0.0000e+00 1.0000e+00
       21  1    1    2  505  501 -2.0572527297e+01 +2.3253806670e+01 +3.4098037715e+00 3.1234518818e+01 0.0000000000e+00 0.0000e+00 1.0000e+00
<mgrwt>
<rscale>  4 0.18639955E+03</rscale>
<asrwt>0</asrwt>
<pdfrwt beam="1">  1       21 0.17464163E-01 0.18639955E+03</pdfrwt>
<pdfrwt beam="2">  1       21 0.92433872E-01 0.18639955E+03</pdfrwt>
<totfact> 0.29418078E+04</totfact>
</mgrwt>
</event>
<event>
 6      1 +2.5196620e+02 2.20159900e+02 7.54677100e-03 1.12691600e-01
       21 -1    0    0  503  502 +0.0000000000e+00 +0.0000000000e+00 +6.0940522220e+01 6.0940522220e+01 0.0000000000e+00 0.0000e+00 -1.0000e+00
       21 -1    0    0  501  503 -0.0000000000e+00 -0.0000000000e+00 -1.3731927806e+03 1.3731927806e+03 0.0000000000e+00 0.0000e+00 -1.0000e+00
        6  1    1    2  501    0 -1.3848149525e+02 -8.5195466225e+01 -8.0453692757e+02 8.3883494194e+02 1.7300000000e+02 0.0000e+00 -1.0000e+00
       -6  1    1    2    0  504 +8.9846281684e+01 +5.4097782343e+01 -4.8346577245e+02 5.2408689882e+02 1.7300000000e+02 0.0000e+00 -1.0000e+00
       21  1    1    2  504  505 +2.1486296450e+01 +3.3139667066e+01 -1.1413292546e+01 4.1111576412e+01 0.0000000000e+00 0.0000e+00 -1.0000e+00
       21  1    1    2  505  502 +2.7148917120e+01 -2.0419831833e+00 -1.2836265819e+01 3.0099885652e+01 0.0000000000e+00 0.0000e+00 -1.0000e+00
<mgrwt>
<rscale>  4 0.22015992E+03</rscale>
<asrwt>0</asrwt>
<pdfrwt beam="1">  1       21 0.93754649E-02 0.22015992E+03</pdfrwt>
<pdfrwt beam="2">  1       21 0.21126043E+00 0.22015992E+03</pdfrwt>
<totfact> 0.10126342E+04</totfact>
</mgrwt>
</event>
<event>
 6      1 +2.5196620e+02 1.98259200e+02 7.54677100e-03 1.14954000e-01
       21 -1    0    0  504  502 +0.0000000000e+00 +0.0000000000e+00 +4.3219129128e+02 4.3219129128e+02 0.0000000000e+00 0.0000e+00 1.0000e+00
       21 -1    0    0  502  503 -0.0000000000e+00 -0.0000000000e+00 -2.4549511214e+02 2.4549511214e+02 0.0000000000e+00 0.0000e+00 1.0000e+00
        6  1    1    2  501    0 +9.7460243089e+01 +1.0189182634e+02 -7.4088193065e+01 2.3515633866e+02 1.7300000000e+02 0.0000e+00 1.0000e+00
       -6  1    1    2    0  503 +9.8295822304e+00 -4.8856977178e+01 +4.9622070884e+01 1.8674842657e+02 1.7300000000e+02 0.0000e+00 1.0000e+00
       21  1    1    2  504  505 -5.8977269811e+01 +1.2047938769e+01 +6.4595639941e+01 8.8295344624e+01 0.0000000000e+00 0.0000e+00 1.0000e+00
       21  1    1    2  505  501 -4.8312555509e+01 -6.5082787935e+01 +1.4656666138e+02 1.6748629357e+02 0.0000000000e+00 0.0000e+00 1.0000e+00
<mgrwt>
<rscale>  4 0.19825921E+03</rscale>
<asrwt>0</asrwt>
<pdfrwt beam="1">  1       21 0.66490968E-01 0.19825921E+03</pdfrwt>
<pdfrwt beam="2">  1       21 0.37768479E-01 0.19825921E+03</pdfrwt>
<totfact> 0.13973443E+04</totfact>
</mgrwt>
</event>
<event>
 6      1 +2.5196620e+02 1.85703900e+02 7.54677100e-03 1.06301000e-01
       21 -1    0    0  505  502 +0.0000000000e+00 +0.0000000000e+00 +4.4087014162e+01 4.4087014162e+01 0.0000000000e+00 0.0000e+00 -1.0000e+00
       21 -1    0    0  501  503 -0.0000000000e+00 -0.0000000000e+00 -1.4221411845e+03 1.4221411845e+03 0.0000000000e+00 0.0000e+00 -1.0000e+00
        6  1    1    2  501    0 +4.7684249501e+01 -7.2151605946e+01 -6.1970369253e+02 6.4918511106e+02 1.7300000000e+02 0.0000e+00 -1.0000e+00
       -6  1    1    2    0  502 -7.2604078043e+01 -1.4869147761e+01 -4.7388727886e+02 5.0989273065e+02 1.7300000000e+02 0.0000e+00 -1.0000e+00
       21  1    1    2  504  503 +2.9756889116e+01 +1.0997088145e+00 -7.0705842325e+01 7.6720257743e+01 0.0000000000e+00 0.0000e+00 -1.0000e+00
       21  1    1    2  505  504 -4.8370605743e+00 +8.5921044893e+01 -2.1375735665e+02 2.3043009923e+02 0.0000000000e+00 0.0000e+00 -1.0000e+00
<mgrwt>
<rscale>  4 0.18570395E+03</rscale>
<asrwt>0</asrwt>
<pdfrwt beam="1">  1       21 0.67826180E-02 0.18570395E+03</pdfrwt>
<pdfrwt beam="2">  1       21 0.21879094E+00 0.18570395E+03</pdfrwt>
<totfact> 0.16440203E+04</totfact>
</mgrwt>
</event>
<event>
 6      1 +2.5196620e+02 1.80263200e+02 7.54677100e-03 1.16128000e-01
       21 -1    0    0  501  502 +0.0000000000e+00 +0.0000000000e+00 +7.4833440420e+02 7.4833440420e+02 0.0000000000e+00 0.0000e+00 -1.0000e+00
       21 -1    0    0  504  503 -0.0000000000e+00 -0.0000000000e+00 -2.4830984949e+02 2.4830984949e+02 0.0000000000e+00 0.0000e+00 -1.0000e+00
        6  1    1    2  501    0 -4.3923753562e+01 +4.5518138417e+01 +5.9311556737e+02 6.2106060357e+02 1.7300000000e+02 0.0000e+00 -1.0000e+00
       -6  1    1    2    0  503 +3.4715364371e+01 +8.1981313467e+01 +2.8043232553e+01 1.9657445198e+02 1.7300000000e+02 0.0000e+00 1.0000e+00
       21  1    1    2  504  505 +7.1838627196e+00 -9.2980344160e+01 -1.0622602902e+02 1.4135388755e+02 0.0000000000e+00 0.0000e+00 -1.0000e+00
       21  1    1    2  505  502 +2.0245264711e+00 -3.4519107724e+01 -1.4908216191e+01 3.7655310588e+01 0.0000000000e+00 0.0000e+00 -1.0000e+00
<mgrwt>
<rscale>  4 0.18026321E+03</rscale>
<asrwt>0</asrwt>
<pdfrwt beam="1">  1       21 0.11512837E+00 0.18026321E+03</pdfrwt>
<pdfrwt beam="2">  1       21 0.38201516E-01 0.18026321E+03</pdfrwt>
<totfact> 0.39045290E+03</totfact>
</mgrwt>
</event>
<event>
 6      1 +2.5196620e+02 2.36286900e+02 7.54677100e-03 9.49153200e-02
       21 -1    0    0  505  502 +0.0000000000e+00 +0.0000000000e+00 +4.1122729767e+02 4.1122729767e+02 0.0000000000e+00 0.0000e+00 -1.0000e+00
       21 -1    0    0  504  503 -0.0000000000e+00 -0.0000000000e+00 -3.4202257508e+02 3.4202257508e+02 0.0000000000e+00 0.0000e+00 1.0000e+00
        6  1    1    2  501    0 -1.6167344934e+02 +1.8314532698e+01 +1.1161920892e+02 2.6241488931e+02 1.7300000000e+02 0.0000e+00 1.0000e+00
       -6  1    1    2    0  502 +1.4556788583e+02 -8.4280063330e+01 -8.8338537580e+00 2.4145429264e+02 1.7300000000e+02 0.0000e+00 -1.0000e+00
       21  1    1    2  504  501 +3.4961737382e+00 +3.2611064576e+01 -1.3653863615e+02 1.4042259051e+02 0.0000000000e+00 0.0000e+00 1.0000e+00
       21  1    1    2  505  503 +1.2609389777e+01 +3.3354466057e+01 +1.0295800359e+02 1.0895810029e+02 0.0000000000e+00 0.0000e+00 -1.0000e+00
<mgrwt>
<rscale>  4 0.23628685E+03</rscale>
<asrwt>0</asrwt>
<pdfrwt beam="1">  1       21 0.63265738E-01 0.23628685E+03</pdfrwt>
<pdfrwt beam="2">  1       21 0.52618858E-01 0.23628685E+03</pdfrwt>
<totfact> 0.76850747E+03</totfact>
</mgrwt>
</event>
<event>
 6      1 +2.5196620e+02 1.97186000e+02 7.54677100e-03 1.15334700e-01
       21 -1    0    0  501  502 +0.0000000000e+00 +0.0000000000e+00 +1.4559853794e+02 1.4559853794e+02 0.0000000000e+00 0.0000e+00 -1.0000e+00
       21 -1    0    0  502  503 -0.0000000000e+00 -0.0000000000e+00 -2.7630516360e+03 2.7630516360e+03 0.0000000000e+00 0.0000e+00 1.0000e+00
        6  1    1    2  501    0 -1.5797289372e+02 +9.7175682495e+01 -6.8425090755e+01 2.6269667197e+02 1.7300000000e+02 0.0000e+00 -1.0000e+00
       -6  1    1    2    0  504 -7.0547038459e+00 -1.4137368195e+01 -1.3367632958e+02 2.1919852900e+02 1.7300000000e+02 0.0000e+00 -1.0000e+00
       21  1    1    2  504  505 +2.1273054364e+01 -4.5645515974e-01 -3.7384821457e+01 4.3015997822e+01 0.0000000000e+00 0.0000e+00 1.0000e+00
       21  1    1    2  505  503 +1.4375454320e+02 -8.2581859140e+01 -2.3779668563e+03 2.3837389752e+03 0.0000000000e+00 0.0000e+00 1.0000e+00
<mgrwt>
<rscale>  4 0.19718603E+03</rscale>
<asrwt>0</asrwt>
<pdfrwt beam="1">  1       21 0.22399777E-01 0.19718603E+03</pdfrwt>
<pdfrwt beam="2">  1       21 0.42508483E+00 0.19718603E+03</pdfrwt>
<totfact> 0.11192841E+02</totfact>
</mgrwt>
</event>
<event>
 6      1 +2.5196620e+02 1.97732300e+02 7.54677100e-03 1.09711200e-01
       21 -1    0    0  505  502 +0.0000000000e+00 +0.0000000000e+00 +1.0552425779e+02 1.0552425779e+02 0.0000000000e+00 0.0000e+00 -1.0000e+00
       21 -1    0    0  504  503 -0.0000000000e+00 -0.0000000000e+00 -1.1979672479e+03 1.1979672479e+03 0.0000000000e+00 0.0000e+00 -1.0000e+00
        6  1    1    2  501    0 -8.8482870728e+01 -2.8411487141e+00 -4.2877799556e+02 4.7076199933e+02 1.7300000000e+02 0.0000e+00 -1.0000e+00
       -6  1    1    2    0  503 +7.1176346727e+01 -1.0309250116e+02 -6.0527901029e+02 6.4186121274e+02 1.7300000000e+02 0.0000e+00 1.0000e+00
       21  1    1    2  504  502 +4.2092432062e+01 -2.4637019080e+01 -1.3817287299e+01 5.0691941907e+01 0.0000000000e+00 0.0000e+00 -1.0000e+00
       21  1    1    2  505  501 -2.4785908060e+01 +1.3057066895e+02 -4.4568696963e+01 1.4017635171e+02 0.0000000000e+00 0.0000e+00 -1.0000e+00
<mgrwt>
<rscale>  4 0.19773230E+03</rscale>
<asrwt>0</asrwt>
<pdfrwt beam="1">  1       21 0.16234502E-01 0.19773230E+03</pdfrwt>
<pdfrwt beam="2">  1       21 0.18430265E+00 0.19773230E+03</pdfrwt>
<totfact> 0.57520859E+03</totfact>
</mgrwt>
</event>
<event>
 6      1 +2.5196620e+02 2.96305400e+02 7.54677100e-03 1.06301000e-01
       21 -1    0    0  501  502 +0.0000000000e+00 +0.0000000000e+00 +9.3267838821e+02 9.3267838821e+02 0.0000000000e+00 0.0000e+00 -1.0000e+00
       21 -1    0    0  504  503 -0.0000000000e+00 -0.0000000000e+00 -1.4315806323e+02 1.4315806323e+02 0.0000000000e+00 0.0000e+00 -1.0000e+00
        6  1    1    2  501    0 -1.9428552563e+01 +2.5956079891e+02 +5.6959521138e+02 6.4970530382e+02 1.7300000000e+02 0.0000e+00 -1.0000e+00
       -6  1    1    2    0  503 +4.3831641605e+01 -2.1615480047e+02 +1.7808364312e+02 3.3209470715e+02 1.7300000000e+02 0.0000e+00 -1.0000e+00
       21  1    1    2  504  505 +4.0517259410e+00 -2.3213759725e+01 -1.4570941286e+01 2.7705729618e+01 0.0000000000e+00 0.0000e+00 -1.0000e+00
       21  1    1    2  505  502 -2.8454814983e+01 -2.0192238712e+01 +5.6412411766e+01 6.6330710845e+01 0.0000000000e+00 0.0000e+00 1.0000e+00
<mgrwt>
<rscale>  4 0.29630538E+03</rscale>
<asrwt>0</asrwt>
<pdfrwt beam="1">  1       21 0.14348898E+00 0.29630538E+03</pdfrwt>
<pdfrwt beam="2">  1       21 0.22024318E-01 0.29630538E+03</pdfrwt>
<totfact> 0.60372751E+03</totfact>
</mgrwt>
</event>
<event>
 6      1 +2.5196620e+02 1.97914300e+02 7.54677100e-03 1.06301000e-01
       21 -1    0    0  505  502 +0.0000000000e+00 +0.0000000000e+00 +1.5592415573e+03 1.5592415573e+03 0.0000000000e+00 0.0000e+00 1.0000e+00
       21 -1    0    0  501  503 -0.0000000000e+00 -0.0000000000e+00 -3.8519507589e+02 3.8519507589e+02 0.0000000000e+00 0.0000e+00 1.0000e+00
        6  1    1    2  501    0 +2.7447926432e+01 -8.9185310846e+01 -4.9977413329e+01 2.0281555704e+02 1.7300000000e+02 0.0000e+00 -1.0000e+00
       -6  1    1    2    0  502 -2.5482252020e+01 +9.4238517925e+01 -2.0686896055e+02 2.8679959949e+02 1.7300000000e+02 0.0000e+00 1.0000e+00
       21  1    1    2  504  503 +2.0711989140e+01 -2.8507595143e+01 +1.4582694807e+01 3.8135606234e+01 0.0000000000e+00 0.0000e+00 -1.0000e+00
       21  1    1    2  505  504 -2.2677663553e+01 +2.3454388064e+01 +1.4163101605e+03 1.4166858705e+03 0.0000000000e+00 0.0000e+00 1.0000e+00
<mgrwt>
<rscale>  4 0.19791428E+03</rscale>
<asrwt>0</asrwt>
<pdfrwt beam="1">  1       21 0.23988331E+00 0.19791428E+03</pdfrwt>
<pdfrwt beam="2">  1       21 0.59260782E-01 0.19791428E+03</pdfrwt>
<totfact> 0.20156858E+02</totfact>
</mgrwt>
</event>
<event>
 6      1 +2.5196620e+02 1.73306200e+02 7.54677100e-03 9.49153200e-02
       21 -1    0    0  505  502 +0.0000000000e+00 +0.0000000000e+00 +8.7815371012e+01 8.7815371012e+01 0.0000000000e+00 0.0000e+00 -1.0000e+00
       21 -1    0    0  501  503 -0.0000000000e+00 -0.0000000000e+00 -7.0909323311e+02 7.0909323311e+02 0.0000000000e+00 0.0000e+00 -1.0000e+00
        6  1    1    2  501    0 -1.5988205155e+01 -3.5198746235e+01 -4.0524495498e+02 4.4232007413e+02 1.7300000000e+02 0.0000e+00 -1.0000e+00
       -6  1    1    2    0  502 -1.6646818000e+01 -1.9001907624e+01 -8.3333694268e+01 1.9367935781e+02 1.7300000000e+02 0.0000e+00 -1.0000e+00
       21  1    1    2  504  503 +5.9958647398e+00 +6.2737935723e+01 -9.0708776406e+01 1.1045397725e+02 0.0000000000e+00 0.0000e+00 1.0000e+00
       21  1    1    2  505  504 +2.6639158416e+01 -8.5372818635e+00 -4.1990436440e+01 5.0455194927e+01 0.0000000000e+00 0.0000e+00 -1.0000e+00
<mgrwt>
<rscale>  4 0.17330617E+03</rscale>
<asrwt>0</asrwt>
<pdfrwt beam="1">  1       21 0.13510057E-01 0.17330617E+03</pdfrwt>
<pdfrwt beam="2">  1       21 0.10909127E+00 0.17330617E+03</pdfrwt>
<totfact> 0.31952937E+04</totfact>
</mgrwt>
</event>
<event>
 6      1 +2.5196620e+02 2.44499600e+02 7.54677100e-03 1.13287100e-01
       21 -1    0    0  504  502 +0.0000000000e+00 +0.0000000000e+00 +1.1146945293e+02 1.1146945293e+02 0.0000000000e+00 0.0000e+00 1.0000e+00
       21 -1    0    0  505  503 -0.0000000000e+00 -0.0000000000e+00 -1.0212976347e+03 1.0212976347e+03 0.0000000000e+00 0.0000e+00 -1.0000e+00
        6  1    1    2  501    0 -4.7260489905e+01 +2.0952841236e+02 -5.0300901497e+02 5.7365737042e+02 1.7300000000e+02 0.0000e+00 -1.0000e+00
       -6  1    1    2    0  503 -1.5182398266e+00 -1.3708111585e+02 -3.5087360654e+02 4.1452964326e+02 1.7300000000e+02 0.0000e+00 1.0000e+00
       21  1    1    2  504  501 -4.3006705909e+00 +2.3166097801e+01 -1.4288854299e+01 2.7556037670e+01 0.0000000000e+00 0.0000e+00 1.0000e+00
       21  1    1    2  505  502 +5.3079400323e+01 -9.5613394312e+01 -4.1656705927e+01 1.1702403625e+02 0.0000000000e+00 0.0000e+00 1.0000e+00
<mgrwt>
<rscale>  4 0.24449957E+03</rscale>
<asrwt>0</asrwt>
<pdfrwt beam="1">  1       21 0.17149146E-01 0.24449957E+03</pdfrwt>
<pdfrwt beam="2">  1       21 0.15712272E+00 0.24449957E+03</pdfrwt>
<totfact> 0.78130582E+03</totfact>
</mgrwt>
</event>
<event>
 6      1 +2.5196620e+02 3.38409900e+02 7.54677100e-03 1.09079000e-01
       21 -1    0    0  505  502 +0.0000000000e+00 +0.0000000000e+00 +3.0867822380e+02 3.0867822380e+02 0.0000000000e+00 0.0000e+00 -1.0000e+00
       21 -1    0    0  501  503 -0.0000000000e+00 -0.0000000000e+00 -1.0422901340e+03 1.0422901340e+03 0.0000000000e+00 0.0000e+00 1.0000e+00
        6  1    1    2  501    0 +5.9789603659e+01 -2.9173444702e+02 -3.0396628494e+02 4.5935638306e+02 1.7300000000e+02 0.0000e+00 1.0000e+00
       -6  1    1    2    0  504 +1.8382266496e+01 +3.8078063835e+01 -4.2188863867e+02 4.5793762688e+02 1.7300000000e+02 0.0000e+00 1.0000e+00
       21  1    1    2  504  502 -1.0165543421e+02 +2.8207538717e+02 -1.1433996378e+02 3.2089558843e+02 0.0000000000e+00 0.0000e+00 -1.0000e+00
       21  1    1    2  505  503 +2.3483564053e+01 -2.8419003991e+01 +1.0658297716e+02 1.1277875947e+02 0.0000000000e+00 0.0000e+00 -1.0000e+00
<mgrwt>
<rscale>  4 0.28811151E+03</rscale>
<asrwt>0</asrwt>
<pdfrwt beam="1">  1       21 0.47488958E-01 0.33840987E+03</pdfrwt>
<pdfrwt beam="2">  1       21 0.16035233E+00 0.33840987E+03</pdfrwt>
<totfact> 0.94463253E+02</totfact>
</mgrwt>
</event>
<event>
 6      1 +2.5196620e+02 1.82478700e+02 7.54677100e-03 1.14954000e-01
       21 -1    0    0  505  502 +0.0000000000e+00 +0.0000000000e+00 +5.0114668337e+02 5.0114668337e+02 0.0000000000e+00 0.0000e+00 1.0000e+00
       21 -1    0    0  502  503 -0.0000000000e+00 -0.0000000000e+00 -8.2553745023e+02 8.2553745023e+02 0.0000000000e+00 0.0000e+00 1.0000e+00
        6  1    1    2  501    0 +1.7357513685e+00 -1.7315273898e-01 +6.3933461686e+01 1.8444384061e+02 1.7300000000e+02 0.0000e+00 1.0000e+00
       -6  1    1    2    0  503 -4.6528596482e+01 -4.2698536490e+01 -7.4978940611e+02 7.7207592167e+02 1.7300000000e+02 0.0000e+00 1.0000e+00
       21  1    1    2  504  501 +8.1325906011e+00 +3.8163135107e+01 +2.4157427275e+02 2.4470531903e+02 0.0000000000e+00 0.0000e+00 1.0000e+00
       21  1    1    2  505  504 +3.6660254512e+01 +4.7085541218e+00 +1.1989090481e+02 1.2545905228e+02 0.0000000000e+00 0.0000e+00 1.0000e+00
<mgrwt>
<rscale>  4 0.18247867E+03</rscale>
<asrwt>0</asrwt>
<pdfrwt beam="1">  1       21 0.77099490E-01 0.18247867E+03</pdfrwt>
<pdfrwt beam="2">  1       21 0.12700576E+00 0.18247867E+03</pdfrwt>
<totfact> 0.69281792E+02</totfact>
</mgrwt>
</event>
<event>
 6      1 +2.5196620e+02 2.16689800e+02 7.54677100e-03 1.06301000e-01
       21 -1    0    0  505  502 +0.0000000000e+00 +0.0000000000e+00 +4.8609900559e+02 4.8609900559e+02 0.0000000000e+00 0.0000e+00 1.0000e+00
       21 -1    0    0  501  503 -0.0000000000e+00 -0.0000000000e+00 -6.2947386104e+02 6.2947386104e+02 0.0000000000e+00 0.0000e+00 -1.0000e+00
        6  1    1    2  501    0 +1.2488809448e+02 -6.8653074107e+00 -3.4572366085e+02 4.0632255445e+02 1.7300000000e+02 0.0000e+00 -1.0000e+00
       -6  1    1    2    0  502 -6.1332581276e+01 -8.6391714710e+01 +7.6617315247e+01 2.1685116299e+02 1.7300000000e+02 0.0000e+00 -1.0000e+00
       21  1    1    2  504  503 +1.5740574659e+00 +9.1059859046e+01 -1.6823055691e+02 1.9130053807e+02 0.0000000000e+00 0.0000e+00 -1.0000e+00
       21  1    1    2  505  504 -6.5129570668e+01 +2.1971630753e+00 +2.9396204706e+02 3.0109861111e+02 0.0000000000e+00 0.0000e+00 1.0000e+00
<mgrwt>
<rscale>  4 0.21668982E+03</rscale>
<asrwt>0</asrwt>
<pdfrwt beam="1">  1       21 0.74784463E-01 0.21668982E+03</pdfrwt>
<pdfrwt beam="2">  1       21 0.96842131E-01 0.21668982E+03</pdfrwt>
<totfact> 0.13857986E+03</totfact>
</mgrwt>
</event>
<event>
 6      1 +2.5196620e+02 2.62571100e+02 7.54677100e-03 1.16558800e-01
       21 -1    0    0  505  502 +0.0000000000e+00 +0.0000000000e+00 +1.1981931603e+03 1.1981931603e+03 0.0000000000e+00 0.0000e+00 1.0000e+00
       21 -1    0    0  504  503 -0.0000000000e+00 -0.0000000000e+00 -8.5540957245e+02 8.5540957245e+02 0.0000000000e+00 0.0000e+00 -1.0000e+00
        6  1    1    2  501    0 -8.9017737868e+00 -5.6375736514e+01 -7.1697149298e+02 7.3975305812e+02 1.7300000000e+02 0.0000e+00 -1.0000e+00
       -6  1    1    2    0  502 -1.8098866866e+02 +1.3557100978e+02 +3.3436031232e+02 4.3916080805e+02 1.7300000000e+02 0.0000e+00 -1.0000e+00
       21  1    1    2  504  501 +3.1065387327e+01 +2.7396602207e+01 -5.6320665431e+01 6.9911726176e+01 0.0000000000e+00 0.0000e+00 -1.0000e+00
       21  1    1    2  505  503 +1.5882505512e+02 -1.0659187547e+02 +7.8171543394e+02 8.0477714040e+02 0.0000000000e+00 0.0000e+00 1.0000e+00
<mgrwt>
<rscale>  4 0.23787993E+03</rscale>
<asrwt>0</asrwt>
<pdfrwt beam="1">  1       21 0.18433741E+00 0.26257114E+03</pdfrwt>
<pdfrwt beam="2">  1       21 0.13160147E+00 0.26257114E+03</pdfrwt>
<totfact> 0.65179386E+01</totfact>
</mgrwt>
</event>
<event>
 6      1 +2.5196620e+02 1.77058300e+02 7.54677100e-03 9.49153200e-02
       21 -1    0    0  503  502 +0.0000000000e+00 +0.0000000000e+00 +4.9731411399e+02 4.9731411399e+02 0.0000000000e+00 0.0000e+00 1.0000e+00
       21 -1    0    0  504  503 -0.0000000000e+00 -0.0000000000e+00 -1.5177001098e+02 1.5177001098e+02 0.0000000000e+00 0.0000e+00 1.0000e+00
        6  1    1    2  501    0 -1.0151641682e+00 +4.6649598924e+01 +2.9764637301e+02 3.4741844943e+02 1.7300000000e+02 0.0000e+00 1.0000e+00
       -6  1    1    2    0  505 +1.9617111461e+01 -3.3078963540e+01 +1.2748044427e+01 1.7768106688e+02 1.7300000000e+02 0.0000e+00 1.0000e+00
       21  1    1    2  504  501 -3.8862006549e+01 -1.9333516499e+00 -3.3577218858e+01 5.1394776270e+01 0.0000000000e+00 0.0000e+00 -1.0000e+00
       21  1    1    2  505  502 +2.0260059256e+01 -1.1637283734e+01 +6.8726904436e+01 7.2589832395e+01 0.0000000000e+00 0.0000e+00 -1.0000e+00
<mgrwt>
<rscale>  4 0.17705829E+03</rscale>
<asrwt>0</asrwt>
<pdfrwt beam="1">  1       21 0.76509863E-01 0.17705829E+03</pdfrwt>
<pdfrwt beam="2">  1       21 0.23349233E-01 0.17705829E+03</pdfrwt>
<totfact> 0.26462702E+04</totfact>
</mgrwt>
</event>
<event>
 6      1 +2.5196620e+02 2.82126600e+02 7.54677100e-03 1.14954000e-01
       21 -1    0    0  501  502 +0.0000000000e+00 +0.0000000000e+00 +1.6528555086e+02 1.6528555086e+02 0.0000000000e+00 0.0000e+00 1.0000e+00
       21 -1    0    0  504  503 -0.0000000000e+00 -0.0000000000e+00 -8.3229415342e+02 8.3229415342e+02 0.0000000000e+00 0.0000e+00 1.0000e+00
        6  1    1    2  501    0 -2.3750725651e+02 +1.4110539721e+02 -4.6623497006e+02 5.6888002015e+02 1.7300000000e+02 0.0000e+00 1.0000e+00
       -6  1    1    2    0  503 +1.5865697012e+02 -3.0093519353e+01 -1.4857611790e+02 2.7943070140e+02 1.7300000000e+02 0.0000e+00 1.0000e+00
       21  1    1    2  504  505 +6.0497708086e+01 -5.8632195105e+01 -3.4157505601e+01 9.0908977419e+01 0.0000000000e+00 0.0000e+00 1.0000e+00
       21  1    1    2  505  502 +1.8352578304e+01 -5.2379682751e+01 -1.8040008998e+01 5.8360005313e+01 0.0000000000e+00 0.0000e+00 1.0000e+00
<mgrwt>
<rscale>  4 0.28212658E+03</rscale>
<asrwt>0</asrwt>
<pdfrwt beam="1">  1       21 0.25428547E-01 0.28212658E+03</pdfrwt>
<pdfrwt beam="2">  1       21 0.12804525E+00 0.28212658E+03</pdfrwt>
<totfact> 0.62041513E+03</totfact>
</mgrwt>
</event>
<event>
 6      1 +2.5196620e+02 3.51276300e+02 7.54677100e-03 1.16558800e-01
       21 -1    0    0  503  502 +0.0000000000e+00 +0.0000000000e+00 +1.6930059561e+02 1.6930059561e+02 0.0000000000e+00 0.0000e+00 1.0000e+00
       21 -1    0    0  504  503 -0.0000000000e+00 -0.0000000000e+00 -1.8875723800e+03 1.8875723800e+03 0.0000000000e+00 0.0000e+00 -1.0000e+00
        6  1    1    2  501    0 -2.8011242547e+02 +3.6642361816e+01 -4.5204738053e+02 5.6042971712e+02 1.7300000000e+02 0.0000e+00 -1.0000e+00
       -6  1    1    2    0  505 +3.1727172315e+02 -3.4899068196e+00 -1.2575583534e+03 1.3084554016e+03 1.7300000000e+02 0.0000e+00 1.0000e+00
       21  1    1    2  504  501 -1.0328169052e+02 -3.7647141654e+01 -3.6889403441e+01 1.1595362417e+02 0.0000000000e+00 0.0000e+00 1.0000e+00
       21  1    1    2  505  502 +6.6122392841e+01 +4.4946866567e+00 +2.8223352928e+01 7.2034232790e+01 0.0000000000e+00 0.0000e+00 1.0000e+00
<mgrwt>
<rscale>  4 0.35127633E+03</rscale>
<asrwt>0</asrwt>
<pdfrwt beam="1">  1       21 0.26046245E-01 0.35127633E+03</pdfrwt>
<pdfrwt beam="2">  1       21 0.29039576E+00 0.35127633E+03</pdfrwt>
<totfact> 0.46167161E+02</totfact>
</mgrwt>
</event>
<event>
 6      1 +2.5196620e+02 3.54942300e+02 7.54677100e-03 1.09711200e-01
       21 -1    0    0  505  502 +0.0000000000e+00 +0.0000000000e+00 +1.2607808860e+03 1.2607808860e+03 0.0000000000e+00 0.0000e+00 -1.0000e+00
       21 -1    0    0  504  503 -0.0000000000e+00 -0.0000000000e+00 -1.2003369321e+03 1.2003369321e+03 0.0000000000e+00 0.0000e+00 -1.0000e+00
        6  1    1    2  501    0 +1.6362347807e+02 -2.2008789895e+02 -7.6852316551e+02 8.3412719760e+02 1.7300000000e+02 0.0000e+00 -1.0000e+00
       -6  1    1    2    0  503 -3.2868400544e+02 +4.7685668344e+02 -1.2218328708e+02 6.1667108544e+02 1.7300000000e+02 0.0000e+00 -1.0000e+00
       21  1    1    2  504  502 +1.6261119422e+01 -5.9403385617e+01 +4.1978500676e+02 4.2427896263e+02 0.0000000000e+00 0.0000e+00 -1.0000e+00
       21  1    1    2  505  501 +1.4879940795e+02 -1.9736539887e+02 +5.3136539977e+02 5.8604057245e+02 0.0000000000e+00 0.0000e+00 -1.0000e+00
<mgrwt>
<rscale>  4 0.35494235E+03</rscale>
<asrwt>0</asrwt>
<pdfrwt beam="1">  1       21 0.19396629E+00 0.35494235E+03</pdfrwt>
<pdfrwt beam="2">  1       21 0.18466722E+00 0.35494235E+03</pdfrwt>
<totfact> 0.20347337E+01</totfact>
</mgrwt>
</event>
<event>
 6      1 +2.5196620e+02 1.93136500e+02 7.54677100e-03 1.16128000e-01
       21 -1    0    0  501  502 +0.0000000000e+00 +0.0000000000e+00 +2.1614151958e+02 2.1614151958e+02 0.0000000000e+00 0.0000e+00 1.0000e+00
       21 -1    0    0  504  503 -0.0000000000e+00 -0.0000000000e+00 -1.3149357508e+03 1.3149357508e+03 0.0000000000e+00 0.0000e+00 1.0000e+00
        6  1    1    2  501    0 -1.1422462228e+02 -1.0436925548e+02 -5.3764754920e+01 2.3824326789e+02 1.7300000000e+02 0.0000e+00 1.0000e+00
       -6  1    1    2    0  503 +5.6395936199e+01 +1.1447445939e+01 +4.8718871609e+01 1.8871691522e+02 1.7300000000e+02 0.0000e+00 1.0000e+00
       21  1    1    2  504  505 +4.8368223202e+01 +3.9105874971e+01 -9.1719668190e+02 9.1930327301e+02 0.0000000000e+00 0.0000e+00 1.0000e+00
       21  1    1    2  505  502 +9.4604628744e+00 +5.3815934575e+01 -1.7655166596e+02 1.8481381422e+02 0.0000000000e+00 0.0000e+00 1.0000e+00
<mgrwt>
<rscale>  4 0.19313646E+03</rscale>
<asrwt>0</asrwt>
<pdfrwt beam="1">  1       21 0.33252542E-01 0.19313646E+03</pdfrwt>
<pdfrwt beam="2">  1       21 0.20229780E+00 0.19313646E+03</pdfrwt>
<totfact> 0.11298089E+03</totfact>
</mgrwt>
</event>
<event>
 6      1 +2.5196620e+02 2.19586700e+02 7.54677100e-03 1.16128000e-01
       21 -1    0    0  501  502 +0.0000000000e+00 +0.0000000000e+00 +3.4478088274e+02 3.4478088274e+02 0.0000000000e+00 0.0000e+00 -1.0000e+00
       21 -1    0    0  505  503 -0.0000000000e+00 -0.0000000000e+00 -5.0678376576e+02 5.0678376576e+02 0.0000000000e+00 0.0000e+00 -1.0000e+00
        6  1    1    2  501    0 +4.8846158491e+01 +5.8956638136e-01 -1.2802475138e+02 2.2069352450e+02 1.7300000000e+02 0.0000e+00 1.0000e+00
       -6  1    1    2    0  503 +1.2752226022e+02 +1.9174762571e+01 +2.2669653916e+02 3.1296951806e+02 1.7300000000e+02 0.0000e+00 -1.0000e+00
       21  1    1    2  504  502 -1.0107585624e+02 +1.0226611385e+00 -1.1912523869e+02 1.5623122941e+02 0.0000000000e+00 0.0000e+00 -1.0000e+00
       21  1    1    2  505  504 -7.5292562472e+01 -2.0786990091e+01 -1.4154943210e+02 1.6167037653e+02 0.0000000000e+00 0.0000e+00 -1.0000e+00
<mgrwt>
<rscale>  4 0.20887212E+03</rscale>
<asrwt>0</asrwt>
<pdfrwt beam="1">  1       21 0.53043213E-01 0.21958665E+03</pdfrwt>
<pdfrwt beam="2">  1       21 0.77966733E-01 0.21958665E+03</pdfrwt>
<totfact> 0.48080899E+03</totfact>
</mgrwt>
</event>
<event>
 6      1 +2.5196620e+02 2.67870600e+02 7.54677100e-03 1.14954000e-01
       21 -1    0    0  505  502 +0.0000000000e+00 +0.0000000000e+00 +2.5793179906e+02 2.5793179906e+02 0.0000000000e+00 0.0000e+00 1.0000e+00
       21 -1    0    0  502  503 -0.0000000000e+00 -0.0000000000e+00 -7.1847223625e+02 7.1847223625e+02 0.0000000000e+00 0.0000e+00 1.0000e+00
        6  1    1    2  501    0 -5.9022115070e+01 +4.5444797700e+01 -7.9874819320e+01 2.0459185337e+02 1.7300000000e+02 0.0000e+00 1.0000e+00
       -6  1    1    2    0  503 -1.0644032827e+02 +1.5918265955e+02 -4.2713990212e+02 4.9904524701e+02 1.7300000000e+02 0.0000e+00 -1.0000e+00
       21  1    1    2  504  501 +4.4328987070e+01 -7.0972931276e+01 -8.7183025026e+00 8.4132186867e+01 0.0000000000e+00 0.0000e+00 1.0000e+00
       21  1    1    2  505  504 +1.2113345628e+02 -1.3365452597e+02 +5.5192586746e+01 1.8863474805e+02 0.0000000000e+00 0.0000e+00 1.0000e+00
<mgrwt>
<rscale>  4 0.24529486E+03</rscale>
<asrwt>0</asrwt>
<pdfrwt beam="1">  1       21 0.39681816E-01 0.26787061E+03</pdfrwt>
<pdfrwt beam="2">  1       21 0.11053419E+00 0.26787061E+03</pdfrwt>
<totfact> 0.37420635E+03</totfact>
</mgrwt>
</event>
<event>
 6      1 +2.5196620e+02 3.52585500e+02 7.54677100e-03 1.11396600e-01
       21 -1    0    0  504  502 +0.0000000000e+00 +0.0000000000e+00 +4.3074177419e+02 4.3074177419e+02 0.0000000000e+00 0.0000e+00 1.0000e+00
       21 -1    0    0  501  503 -0.0000000000e+00 -0.0000000000e+00 -1.5166749889e+03 1.5166749889e+03 0.0000000000e+00 0.0000e+00 -1.0000e+00
        6  1    1    2  501    0 -3.1209582814e+02 +7.5838114455e+01 -1.3515568079e+03 1.3999250089e+03 1.7300000000e+02 0.0000e+00 -1.0000e+00
       -6  1    1    2    0  502 +1.8552354269e+02 -6.3119782569e+01 +1.0610922308e+02 2.8211922846e+02 1.7300000000e+02 0.0000e+00 1.0000e+00
       21  1    1    2  504  505 +1.4836045880e+02 +1.0130229646e+01 +1.7546260492e+02 2.3000124568e+02 0.0000000000e+00 0.0000e+00 1.0000e+00
       21  1    1    2  505  503 -2.1788173352e+01 -2.2848561532e+01 -1.5948234889e+01 3.5371280132e+01 0.0000000000e+00 0.0000e+00 -1.0000e+00
<mgrwt>
<rscale>  4 0.35258551E+03</rscale>
<asrwt>0</asrwt>
<pdfrwt beam="1">  1       21 0.66267965E-01 0.35258551E+03</pdfrwt>
<pdfrwt beam="2">  1       21 0.23333462E+00 0.35258551E+03</pdfrwt>
<totfact> 0.14785513E+02</totfact>
</mgrwt>
</event>
<event>
 6      1 +2.5196620e+02 2.28097600e+02 7.54677100e-03 9.49153200e-02
       21 -1    0    0  505  502 +0.0000000000e+00 +0.0000000000e+00 +7.5518966688e+02 7.5518966688e+02 0.0000000000e+00 0.0000e+00 -1.0000e+00
       21 -1    0    0  501  503 -0.0000000000e+00 -0.0000000000e+00 -3.7924455786e+02 3.7924455786e+02 0.0000000000e+00 0.0000e+00 -1.0000e+00
        6  1    1    2  501    0 +1.4835375651e+02 -7.0616171104e+01 -1.1946763715e+02 2.6682765415e+02 1.7300000000e+02 0.0000e+00 -1.0000e+00
       -6  1    1    2    0  502 -1.6192302917e+02 -7.5858968977e+01 +4.5970294833e+00 2.4884489794e+02 1.7300000000e+02 0.0000e+00 1.0000e+00
       21  1    1    2  504  503 -2.4491293479e+01 -1.3965859133e+01 -4.7786517698e+01 5.5483510625e+01 0.0000000000e+00 0.0000e+00 -1.0000e+00
       21  1    1    2  505  504 +3.8060566139e+01 +1.6044099921e+02 +5.3860223438e+02 5.6327816202e+02 0.0000000000e+00 0.0000e+00 -1.0000e+00
<mgrwt>
<rscale>  4 0.22809760E+03</rscale>
<asrwt>0</asrwt>
<pdfrwt beam="1">  1       21 0.11618303E+00 0.22809760E+03</pdfrwt>
<pdfrwt beam="2">  1       21 0.58345317E-01 0.22809760E+03</pdfrwt>
<totfact> 0.15236079E+03</totfact>
</mgrwt>
</event>
<event>
 6      1 +2.5196620e+02 1.88960100e+02 7.54677100e-03 1.14954000e-01
       21 -1    0    0  504  502 +0.0000000000e+00 +0.0000000000e+00 +8.0068807816e+02 8.0068807816e+02 0.0000000000e+00 0.0000e+00 1.0000e+00
       21 -1    0    0  502  503 -0.0000000000e+00 -0.0000000000e+00 -1.5621474367e+02 1.5621474367e+02 0.0000000000e+00 0.0000e+00 1.0000e+00
        6  1    1    2  501    0 +8.6815730858e+01 -6.0356460140e+01 +3.1915417065e+00 2.0277835028e+02 1.7300000000e+02 0.0000e+00 1.0000e+00
       -6  1    1    2    0  503 +2.1825397082e+01 +5.9917201008e+01 +1.2503169163e+02 2.2277419700e+02 1.7300000000e+02 0.0000e+00 1.0000e+00
       21  1    1    2  504  505 -9.6740663508e+01 -2.2920863937e+01 +3.9808495082e+02 4.1031177176e+02 0.0000000000e+00 0.0000e+00 1.0000e+00
       21  1    1    2  505  501 -1.1900464432e+01 +2.3360123070e+01 +1.1816515034e+02 1.2103850279e+02 0.0000000000e+00 0.0000e+00 1.0000e+00
<mgrwt>
<rscale>  4 0.18896008E+03</rscale>
<asrwt>0</asrwt>
<pdfrwt beam="1">  1       21 0.12318278E+00 0.18896008E+03</pdfrwt>
<pdfrwt beam="2">  1       21 0.24033038E-01 0.18896008E+03</pdfrwt>
<totfact> 0.81022075E+03</totfact>
</mgrwt>
</event>
<event>
 6      1 +2.5196620e+02 2.58428100e+02 7.54677100e-03 1.14954000e-01
       21 -1    0    0  504  502 +0.0000000000e+00 +0.0000000000e+00 +3.6223097178e+02 3.6223097178e+02 0.0000000000e+00 0.0000e+00 -1.0000e+00
       21 -1    0    0  502  503 -0.0000000000e+00 -0.0000000000e+00 -3.2927643695e+02 3.2927643695e+02 0.0000000000e+00 0.0000e+00 -1.0000e+00
        6  1    1    2  501    0 -1.4984729510e+02 +7.7710894221e+01 +1.1747950995e+01 2.4199216781e+02 1.7300000000e+02 0.0000e+00 -1.0000e+00
       -6  1    1    2    0  503 +2.1479660525e+02 -2.5492801779e+01 -8.2188214045e+01 2.8891411716e+02 1.7300000000e+02 0.0000e+00 -1.0000e+00
       21  1    1    2  504  505 -5.9293660517e+01 +4.5814682292e+00 +7.8105841656e+01 9.8169498978e+01 0.0000000000e+00 0.0000e+00 -1.0000e+00
       21  1    1    2  505  501 -5.6556496276e+00 -5.6799560672e+01 +2.5288956233e+01 6.2431624779e+01 0.0000000000e+00 0.0000e+00 -1.0000e+00
<mgrwt>
<rscale>  4 0.25842809E+03</rscale>
<asrwt>0</asrwt>
<pdfrwt beam="1">  1       21 0.55727842E-01 0.25842809E+03</pdfrwt>
<pdfrwt beam="2">  1       21 0.50657914E-01 0.25842809E+03</pdfrwt>
<totfact> 0.10810836E+04</totfact>
</mgrwt>
</event>
<event>
 6      1 +2.5196620e+02 2.19489900e+02 7.54677100e-03 9.49153200e-02
       21 -1    0    0  505  502 +0.0000000000e+00 +0.0000000000e+00 +6.4062645752e+02 6.4062645752e+02 0.0000000000e+00 0.0000e+00 1.0000e+00
       21 -1    0    0  501  503 -0.0000000000e+00 -0.0000000000e+00 -2.7411354758e+02 2.7411354758e+02 0.0000000000e+00 0.0000e+00 -1.0000e+00
        6  1    1    2  501    0 +1.9190926394e+02 +7.9032388415e+01 -6.2166682283e+01 2.7725255705e+02 1.7300000000e+02 0.0000e+00 -1.0000e+00
       -6  1    1    2    0  502 -5.9600034033e+01 -5.0803806925e+01 +3.1521414364e+02 3.6799748261e+02 1.7300000000e+02 0.0000e+00 1.0000e+00
       21  1    1    2  504  503 -5.8279729238e+01 -4.4534386099e+01 -5.0363404100e+01 8.8973652604e+01 0.0000000000e+00 0.0000e+00 -1.0000e+00
       21  1    1    2  505  504 -7.4029500665e+01 +1.6305804609e+01 +1.6382885268e+02 1.8051631284e+02 0.0000000000e+00 0.0000e+00 1.0000e+00
<mgrwt>
<rscale>  4 0.21948986E+03</rscale>
<asrwt>0</asrwt>
<pdfrwt beam="1">  1       21 0.98557916E-01 0.21948986E+03</pdfrwt>
<pdfrwt beam="2">  1       21 0.42171315E-01 0.21948986E+03</pdfrwt>
<totfact> 0.45028622E+03</totfact>
</mgrwt>
</event>
<event>
 6      1 +2.5196620e+02 1.88477100e+02 7.54677100e-03 9.49153200e-02
       21 -1    0    0  505  502 +0.0000000000e+00 +0.0000000000e+00 +5.4055874832e+01 5.4055874832e+01 0.0000000000e+00 0.0000e+00 1.0000e+00
       21 -1    0    0  504  503 -0.0000000000e+00 -0.0000000000e+00 -1.7964283509e+03 1.7964283509e+03 0.0000000000e+00 0.0000e+00 1.0000e+00
        6  1    1    2  501    0 +1.8930933037e+01 +5.9366516773e+01 -3.0861784587e+02 3.5924467752e+02 1.7300000000e+02 0.0000e+00 1.0000e+00
       -6  1    1    2    0  502 +6.3121315620e+01 -5.8063071411e+01 -1.0587248082e+03 1.0761890355e+03 1.7300000000e+02 0.0000e+00 1.0000e+00
       21  1    1    2  504  501 -2.3464199676e+01 -2.1828031093e+01 -3.4428848433e+02 3.4577679513e+02 0.0000000000e+00 0.0000e+00 1.0000e+00
       21  1    1    2  505  503 -5.8588048981e+01 +2.0524585731e+01 -3.0741337731e+01 6.9273717587e+01 0.0000000000e+00 0.0000e+00 1.0000e+00
<mgrwt>
<rscale>  4 0.18847712E+03</rscale>
<asrwt>0</asrwt>
<pdfrwt beam="1">  1       21 0.83162900E-02 0.18847712E+03</pdfrwt>
<pdfrwt beam="2">  1       21 0.27637354E+00 0.18847712E+03</pdfrwt>
<totfact> 0.52619574E+03</totfact>
</mgrwt>
</event>
<event>
 6      1 +2.5196620e+02 2.70910700e+02 7.54677100e-03 1.06301000e-01
       21 -1    0    0  503  502 +0.0000000000e+00 +0.0000000000e+00 +1.0367396991e+03 1.0367396991e+03 0.0000000000e+00 0.0000e+00 -1.0000e+00
       21 -1    0    0  504  503 -0.0000000000e+00 -0.0000000000e+00 -6.2863140687e+02 6.2863140687e+02 0.0000000000e+00 0.0000e+00 -1.0000e+00
        6  1    1    2  501    0 +2.4570549122e+02 -8.7878176258e+01 -4.1135995449e+02 5.1695239088e+02 1.7300000000e+02 0.0000e+00 1.0000e+00
       -6  1    1    2    0  505 -1.0904459621e+02 -3.9531242052e+01 +8.2192633684e+01 2.2391532349e+02 1.7300000000e+02 0.0000e+00 -1.0000e+00
       21  1    1    2  504  501 -2.7676267967e+01 -3.6147617417e+01 -7.5575524980e+01 8.8228600973e+01 0.0000000000e+00 0.0000e+00 -1.0000e+00
       21  1    1    2  505  502 -1.0898462704e+02 +1.6355703573e+02 +8.1285113804e+02 8.3627479065e+02 0.0000000000e+00 0.0000e+00 -1.0000e+00
<mgrwt>
<rscale>  4 0.27091072E+03</rscale>
<asrwt>0</asrwt>
<pdfrwt beam="1">  1       21 0.15949841E+00 0.27091072E+03</pdfrwt>
<pdfrwt beam="2">  1       21 0.96712524E-01 0.27091072E+03</pdfrwt>
<totfact> 0.20719871E+02</totfact>
</mgrwt>
</event>
<event>
 6      1 +2.5196620e+02 1.79469400e+02 7.54677100e-03 1.16321900e-01
       21 -1    0    0  503  502 +0.0000000000e+00 +0.0000000000e+00 +6.8590303651e+02 6.8590303651e+02 0.0000000000e+00 0.0000e+00 -1.0000e+00
       21 -1    0    0  505  503 -0.0000000000e+00 -0.0000000000e+00 -4.4362821876e+02 4.4362821876e+02 0.0000000000e+00 0.0000e+00 -1.0000e+00
        6  1    1    2  501    0 -8.8700940770e+01 +7.5775810890e+01 -9.4943222610e+01 2.2924451123e+02 1.7300000000e+02 0.0000e+00 -1.0000e+00
       -6  1    1    2    0  502 -1.3515973847e+01 -4.5080201885e+01 +5.9340917124e+02 6.1990188794e+02 1.7300000000e+02 0.0000e+00 -1.0000e+00
       21  1    1    2  504  501 +4.7253078136e+01 -2.2700357326e+01 -7.9995881321e+01 9.5642567116e+01 0.0000000000e+00 0.0000e+00 1.0000e+00
       21  1    1    2  505  504 +5.4963836481e+01 -7.9952516794e+00 -1.7619524957e+02 1.8474228899e+02 0.0000000000e+00 0.0000e+00 -1.0000e+00
<mgrwt>
<rscale>  4 0.17946935E+03</rscale>
<asrwt>0</asrwt>
<pdfrwt beam="1">  1       21 0.10552354E+00 0.17946935E+03</pdfrwt>
<pdfrwt beam="2">  1       21 0.68250495E-01 0.17946935E+03</pdfrwt>
<totfact> 0.14328153E+03</totfact>
</mgrwt>
</event>
<event>
 6      1 +2.5196620e+02 2.43583800e+02 7.54677100e-03 9.49153200e-02
       21 -1    0    0  505  502 +0.0000000000e+00 +0.0000000000e+00 +1.2246393815e+03 1.2246393815e+03 0.0000000000e+00 0.0000e+00 -1.0000e+00
       21 -1    0    0  501  503 -0.0000000000e+00 -0.0000000000e+00 -2.3194667967e+02 2.3194667967e+02 0.0000000000e+00 0.0000e+00 -1.0000e+00
        6  1    1    2  501    0 +1.2147891933e+02 +1.0885317319e+02 +7.9737696762e+02 8.3207281511e+02 1.7300000000e+02 0.0000e+00 -1.0000e+00
       -6  1    1    2    0  502 -1.4172298625e+02 -8.1188327547e+01 +5.2842347808e+01 2.4371758879e+02 1.7300000000e+02 0.0000e+00 -1.0000e+00
       21  1    1    2  504  503 -3.0796725218e+01 +3.0354308857e+01 -1.0924042759e+02 1.1748741793e+02 0.0000000000e+00 0.0000e+00 -1.0000e+00
       21  1    1    2  505  504 +5.1040792142e+01 -5.8019154501e+01 +2.5171381404e+02 2.6330823939e+02 0.0000000000e+00 0.0000e+00 1.0000e+00
<mgrwt>
<rscale>  4 0.24358377E+03</rscale>
<asrwt>0</asrwt>
<pdfrwt beam="1">  1       21 0.18840605E+00 0.24358377E+03</pdfrwt>
<pdfrwt beam="2">  1       21 0.35684105E-01 0.24358377E+03</pdfrwt>
<totfact> 0.11509886E+03</totfact>
</mgrwt>
</event>
<event>
 6      1 +2.5196620e+02 2.05005300e+02 7.54677100e-03 1.12691600e-01
       21 -1    0    0  505  502 +0.0000000000e+00 +0.0000000000e+00 +1.4367100087e+03 1.4367100087e+03 0.0000000000e+00 0.0000e+00 1.0000e+00
       21 -1    0    0  501  503 -0.0000000000e+00 -0.0000000000e+00 -2.8186345246e+02 2.8186345246e+02 0.0000000000e+00 0.0000e+00 -1.0000e+00
        6  1    1    2  501    0 +9.7877837333e+01 -4.8382679533e+01 -2.0492772652e+02 2.8956057711e+02 1.7300000000e+02 0.0000e+00 -1.0000e+00
       -6  1    1    2    0  504 -1.3128482977e+02 -6.4115842983e+00 +3.2430351592e+02 3.9035699735e+02 1.7300000000e+02 0.0000e+00 1.0000e+00
       21  1    1    2  504  502 +1.4536155613e+01 +3.5651792437e+01 +8.8263521499e+02 8.8347454568e+02 0.0000000000e+00 0.0000e+00 1.0000e+00
       21  1    1    2  505  503 +1.8870836823e+01 +1.9142471394e+01 +1.5283555183e+02 1.5518134101e+02 0.0000000000e+00 0.0000e+00 1.0000e+00
<mgrwt>
<rscale>  4 0.20500525E+03</rscale>
<asrwt>0</asrwt>
<pdfrwt beam="1">  1       21 0.22103230E+00 0.20500525E+03</pdfrwt>
<pdfrwt beam="2">  1       21 0.43363609E-01 0.20500525E+03</pdfrwt>
<totfact> 0.49918061E+02</totfact>
</mgrwt>
</event>
<event>
 6      1 +2.5196620e+02 1.97347200e+02 7.54677100e-03 1.16321900e-01
       21 -1    0    0  504  502 +0.0000000000e+00 +0.0000000000e+00 +3.2488811979e+02 3.2488811979e+02 0.0000000000e+00 0.0000e+00 -1.0000e+00
       21 -1    0    0  505  503 -0.0000000000e+00 -0.0000000000e+00 -5.9386510965e+02 5.9386510965e+02 0.0000000000e+00 0.0000e+00 -1.0000e+00
        6  1    1    2  501    0 +6.9950202006e+01 +4.5171762988e-01 -7.1972064951e+01 2.0000553228e+02 1.7300000000e+02 0.0000e+00 -1.0000e+00
       -6  1    1    2    0  502 -1.0206988504e+02 -4.4791774353e+00 +2.1862967458e+02 2.9692803685e+02 1.7300000000e+02 0.0000e+00 -1.0000e+00
       21  1    1    2  504  503 +2.5201860377e+01 -1.4769905164e+01 -3.7851722273e+02 3.7964268960e+02 0.0000000000e+00 0.0000e+00 -1.0000e+00
       21  1    1    2  505  501 +6.9178226534e+00 +1.8797364969e+01 -3.7117376760e+01 4.2176970702e+01 0.0000000000e+00 0.0000e+00 -1.0000e+00
<mgrwt>
<rscale>  4 0.19734724E+03</rscale>
<asrwt>0</asrwt>
<pdfrwt beam="1">  1       21 0.49982787E-01 0.19734724E+03</pdfrwt>
<pdfrwt beam="2">  1       21 0.91363863E-01 0.19734724E+03</pdfrwt>
<totfact> 0.38539207E+03</totfact>
</mgrwt>
</event>
<event>
 6      1 +2.5196620e+02 2.95174200e+02 7.54677100e-03 1.16321900e-01
       21 -1    0    0  503  502 +0.0000000000e+00 +0.0000000000e+00 +8.9085441447e+01 8.9085441447e+01 0.0000000000e+00 0.0000e+00 1.0000e+00
       21 -1    0    0  505  503 -0.0000000000e+00 -0.0000000000e+00 -1.2283997216e+03 1.2283997216e+03 0.0000000000e+00 0.0000e+00 -1.0000e+00
        6  1    1    2  501    0 -1.5621677310e+02 -1.8846560275e+02 -4.7253276988e+02 5.5958840430e+02 1.7300000000e+02 0.0000e+00 1.0000e+00
       -6  1    1    2    0  502 +1.5329366650e+02 +1.7614049284e+02 -4.8146562405e+02 5.6237226865e+02 1.7300000000e+02 0.0000e+00 -1.0000e+00
       21  1    1    2  504  501 +2.1473089407e+01 +2.8186386768e+01 -8.1348049734e+01 8.8730328317e+01 0.0000000000e+00 0.0000e+00 -1.0000e+00
       21  1    1    2  505  504 -1.8549982807e+01 -1.5861276859e+01 -1.0396783648e+02 1.0679416177e+02 0.0000000000e+00 0.0000e+00 -1.0000e+00
<mgrwt>
<rscale>  4 0.29517421E+03</rscale>
<asrwt>0</asrwt>
<pdfrwt beam="1">  1       21 0.13705452E-01 0.29517421E+03</pdfrwt>
<pdfrwt beam="2">  1       21 0.18898457E+00 0.29517421E+03</pdfrwt>
<totfact> 0.68060237E+03</totfact>
</mgrwt>
</event>
<event>
 6      1 +2.5196620e+02 2.97249500e+02 7.54677100e-03 9.49153200e-02
       21 -1    0    0  503  502 +0.0000000000e+00 +0.0000000000e+00 +2.3431589032e+03 2.3431589032e+03 0.0000000000e+00 0.0000e+00 1.0000e+00
       21 -1    0    0  504  503 -0.0000000000e+00 -0.0000000000e+00 -1.1285417412e+02 1.1285417412e+02 0.0000000000e+00 0.0000e+00 1.0000e+00
        6  1    1    2  501    0 +2.4857328168e+02 -1.1766846182e+02 +5.9138978878e+02 6.7476323666e+02 1.7300000000e+02 0.0000e+00 1.0000e+00
       -6  1    1    2    0  505 -1.9572760895e+02 +1.0955551173e+02 +3.8990127176e+02 4.8193745318e+02 1.7300000000e+02 0.0000e+00 1.0000e+00
       21  1    1    2  504  501 +2.2689637059e+01 +8.5057380801e+00 -1.7914359869e+01 3.0134556570e+01 0.0000000000e+00 0.0000e+00 -1.0000e+00
       21  1    1    2  505  502 -7.5535309788e+01 -3.9278798940e-01 +1.2669280284e+03 1.2691778309e+03 0.0000000000e+00 0.0000e+00 1.0000e+00
<mgrwt>
<rscale>  4 0.29724954E+03</rscale>
<asrwt>0</asrwt>
<pdfrwt beam="1">  1       21 0.36048595E+00 0.29724954E+03</pdfrwt>
<pdfrwt beam="2">  1       21 0.17362182E-01 0.29724954E+03</pdfrwt>
<totfact> 0.39877211E+02</totfact>
</mgrwt>
</event>
<event>
 6      1 +2.5196620e+02 2.06244100e+02 7.54677100e-03 1.06301000e-01
       21 -1    0    0  501  502 +0.0000000000e+00 +0.0000000000e+00 +6.1583849231e+02 6.1583849231e+02 0.0000000000e+00 0.0000e+00 1.0000e+00
       21 -1    0    0  505  503 -0.0000000000e+00 -0.0000000000e+00 -7.4644582103e+02 7.4644582103e+02 0.0000000000e+00 0.0000e+00 -1.0000e+00
        6  1    1    2  501    0 +7.3169532263e+01 -8.7191719145e+00 -2.0633842633e+02 2.7916724484e+02 1.7300000000e+02 0.0000e+00 -1.0000e+00
       -6  1    1    2    0  504 -1.5356949379e+02 -4.6049762768e+01 -2.6500849819e+02 3.5477129843e+02 1.7300000000e+02 0.0000e+00 -1.0000e+00
       21  1    1    2  504  503 +4.7408745094e+01 +1.1484865922e+01 -1.8931806676e+02 1.9550146204e+02 0.0000000000e+00 0.0000e+00 -1.0000e+00
       21  1    1    2  505  502 +3.2991216437e+01 +4.3284068761e+01 +5.3005766256e+02 5.3284430804e+02 0.0000000000e+00 0.0000e+00 1.0000e+00
<mgrwt>
<rscale>  4 0.20624407E+03</rscale>
<asrwt>0</asrwt>
<pdfrwt beam="1">  1       21 0.94744384E-01 0.20624407E+03</pdfrwt>
<pdfrwt beam="2">  1       21 0.11483782E+00 0.20624407E+03</pdfrwt>
<totfact> 0.54038307E+02</totfact>
</mgrwt>
</event>
<event>
 6      1 +2.5196620e+02 2.00543800e+02 7.54677100e-03 9.49153200e-02
       21 -1    0    0  505  502 +0.0000000000e+00 +0.0000000000e+00 +5.1898768829e+02 5.1898768829e+02 0.0000000000e+00 0.0000e+00 -1.0000e+00
       21 -1    0    0  501  503 -0.0000000000e+00 -0.0000000000e+00 -6.5270656542e+02 6.5270656542e+02 0.0000000000e+00 0.0000e+00 -1.0000e+00
        6  1    1    2  501    0 +3.5141823795e+01 +9.0385209899e+00 +1.3915699381e+02 2.2496735667e+02 1.7300000000e+02 0.0000e+00 1.0000e+00
       -6  1    1    2    0  502 -1.4629739970e+02 +4.3611995383e+01 -1.9222668115e+02 3.0030822874e+02 1.7300000000e+02 0.0000e+00 -1.0000e+00
       21  1    1    2  504  503 +3.3947512786e+01 -6.1428621199e+01 -3.5469343457e+02 3.6157065929e+02 0.0000000000e+00 0.0000e+00 -1.0000e+00
       21  1    1    2  505  504 +7.7208063124e+01 +8.7781048261e+00 +2.7404424478e+02 2.8484800901e+02 0.0000000000e+00 0.0000e+00 -1.0000e+00
<mgrwt>
<rscale>  4 0.20054383E+03</rscale>
<asrwt>0</asrwt>
<pdfrwt beam="1">  1       21 0.79844260E-01 0.20054383E+03</pdfrwt>
<pdfrwt beam="2">  1       21 0.10041639E+00 0.20054383E+03</pdfrwt>
<totfact> 0.11142433E+03</totfact>
</mgrwt>
</event>
<event>
 6      1 +2.5196620e+02 4.39789800e+02 7.54677100e-03 1.16128000e-01
       21 -1    0    0  501  502 +0.0000000000e+00 +0.0000000000e+00 +6.5685190026e+02 6.5685190026e+02 0.0000000000e+00 0.0000e+00 1.0000e+00
       21 -1    0    0  502  503 -0.0000000000e+00 -0.0000000000e+00 -6.3569108136e+02 6.3569108136e+02 0.0000000000e+00 0.0000e+00 1.0000e+00
        6  1    1    2  501    0 -3.5655313651e+02 -2.1534201397e+02 +3.4964394984e+02 5.7068573996e+02 1.7300000000e+02 0.0000e+00 1.0000e+00
       -6  1    1    2    0  504 -1.2362710934e+01 +1.3868645769e+02 -1.6734856320e+01 2.2270120247e+02 1.7300000000e+02 0.0000e+00 -1.0000e+00
       21  1    1    2  504  505 +3.1437395986e+02 +8.7588370930e+01 -2.9781571272e+02 4.4181094159e+02 0.0000000000e+00 0.0000e+00 1.0000e+00
       21  1    1    2  505  503 +5.4541887582e+01 -1.0932814651e+01 -1.3932561898e+01 5.7345097595e+01 0.0000000000e+00 0.0000e+00 1.0000e+00
<mgrwt>
<rscale>  4 0.37072945E+03</rscale>
<asrwt>0</asrwt>
<pdfrwt beam="1">  1       21 0.10105414E+00 0.43978979E+03</pdfrwt>
<pdfrwt beam="2">  1       21 0.97798628E-01 0.43978979E+03</pdfrwt>
<totfact> 0.58453730E+02</totfact>
</mgrwt>
</event>
<event>
 6      1 +2.5196620e+02 2.17276400e+02 7.54677100e-03 1.06301000e-01
       21 -1    0    0  501  502 +0.0000000000e+00 +0.0000000000e+00 +8.0991926475e+02 8.0991926475e+02 0.0000000000e+00 0.0000e+00 1.0000e+00
       21 -1    0    0  505  503 -0.0000000000e+00 -0.0000000000e+00 -2.8869670653e+02 2.8869670653e+02 0.0000000000e+00 0.0000e+00 -1.0000e+00
        6  1    1    2  501    0 -4.2011481476e+01 +9.7857008970e+01 -2.8711559064e+01 2.0516898500e+02 1.7300000000e+02 0.0000e+00 -1.0000e+00
       -6  1    1    2    0  504 +6.1233684573e+01 -1.4573468506e+02 -2.2200407705e+01 2.3539333180e+02 1.7300000000e+02 0.0000e+00 -1.0000e+00
       21  1    1    2  504  503 -1.6907908947e+01 +2.7231257188e+01 -3.6778656572e+01 4.8786148980e+01 0.0000000000e+00 0.0000e+00 -1.0000e+00
       21  1    1    2  505  502 -2.3142941501e+00 +2.0646418898e+01 +6.0891318156e+02 6.0926750549e+02 0.0000000000e+00 0.0000e+00 1.0000e+00
<mgrwt>
<rscale>  4 0.21727645E+03</rscale>
<asrwt>0</asrwt>
<pdfrwt beam="1">  1       21 0.12460296E+00 0.21727645E+03</pdfrwt>
<pdfrwt beam="2">  1       21 0.44414878E-01 0.21727645E+03</pdfrwt>
<totfact> 0.22903604E+03</totfact>
</mgrwt>
</event>
<event>
 6      1 +2.5196620e+02 2.12153800e+02 7.54677100e-03 1.06301000e-01
       21 -1    0    0  505  502 +0.0000000000e+00 +0.0000000000e+00 +3.0344593514e+02 3.0344593514e+02 0.0000000000e+00 0.0000e+00 -1.0000e+00
       21 -1    0    0  504  503 -0.0000000000e+00 -0.0000000000e+00 -2.8240206591e+02 2.8240206591e+02 0.0000000000e+00 0.0000e+00 -1.0000e+00
        6  1    1    2  501    0 -4.6403499179e+01 -6.8346390705e+01 +4.8154699725e+01 1.9766736950e+02 1.7300000000e+02 0.0000e+00 -1.0000e+00
       -6  1    1    2    0  502 +4.6383508255e+01 +1.6611025006e+02 -5.2311884250e+01 2.4981909104e+02 1.7300000000e+02 0.0000e+00 -1.0000e+00
       21  1    1    2  504  501 -1.4339627064e+01 -4.6141984009e+01 -3.3566583904e+01 5.8833860553e+01 0.0000000000e+00 0.0000e+00 -1.0000e+00
       21  1    1    2  505  503 +1.4359617988e+01 -5.1621875349e+01 +5.8767637656e+01 7.9527679955e+01 0.0000000000e+00 0.0000e+00 -1.0000e+00
<mgrwt>
<rscale>  4 0.21215378E+03</rscale>
<asrwt>0</asrwt>
<pdfrwt beam="1">  1       21 0.46683990E-01 0.21215378E+03</pdfrwt>
<pdfrwt beam="2">  1       21 0.43446472E-01 0.21215378E+03</pdfrwt>
<totfact> 0.22121136E+04</totfact>
</mgrwt>
</event>
<event>
 6      1 +2.5196620e+02 1.93980600e+02 7.54677100e-03 1.06301000e-01
       21 -1    0    0  505  502 +0.0000000000e+00 +0.0000000000e+00 +1.4769250232e+03 1.4769250232e+03 0.0000000000e+00 0.0000e+00 -1.0000e+00
       21 -1    0    0  504  503 -0.0000000000e+00 -0.0000000000e+00 -1.2992227710e+02 1.2992227710e+02 0.0000000000e+00 0.0000e+00 1.0000e+00
        6  1    1    2  501    0 -7.7803160296e+01 +1.8466953904e+01 +1.2418092332e+02 2.2747365090e+02 1.7300000000e+02 0.0000e+00 1.0000e+00
       -6  1    1    2    0  503 +8.7349438990e+01 +8.6903088988e+01 +9.2605303670e+01 2.3170415110e+02 1.7300000000e+02 0.0000e+00 1.0000e+00
       21  1    1    2  504  502 -2.8626623085e+01 -1.7917628400e+01 +3.4411827626e+01 4.8215130792e+01 0.0000000000e+00 0.0000e+00 -1.0000e+00
       21  1    1    2  505  501 +1.9080344391e+01 -8.7452414492e+01 +1.0958046915e+03 1.0994543676e+03 0.0000000000e+00 0.0000e+00 -1.0000e+00
<mgrwt>
<rscale>  4 0.19398065E+03</rscale>
<asrwt>0</asrwt>
<pdfrwt beam="1">  1       21 0.22721922E+00 0.19398065E+03</pdfrwt>
<pdfrwt beam="2">  1       21 0.19988044E-01 0.19398065E+03</pdfrwt>
<totfact> 0.20977247E+03</totfact>
</mgrwt>
</event>
<event>
 6      1 +2.5196620e+02 3.92016100e+02 7.54677100e-03 1.06301000e-01
       21 -1    0    0  505  502 +0.0000000000e+00 +0.0000000000e+00 +1.2514780343e+03 1.2514780343e+03 0.0000000000e+00 0.0000e+00 -1.0000e+00
       21 -1    0    0  504  503 -0.0000000000e+00 -0.0000000000e+00 -3.4879282659e+02 3.4879282659e+02 0.0000000000e+00 0.0000e+00 1.0000e+00
        6  1    1    2  501    0 -5.7272945330e+01 -3.0869889927e+02 +6.8985906357e+02 7.7743792567e+02 1.7300000000e+02 0.0000e+00 -1.0000e+00
       -6  1    1    2    0  503 +2.1390093010e+02 +3.3482700410e+02 +1.5479935680e+02 4.6016798176e+02 1.7300000000e+02 0.0000e+00 1.0000e+00
       21  1    1    2  504  502 -4.2172181476e+01 -2.2775355963e+01 -1.3220783974e+02 1.4062760262e+02 0.0000000000e+00 0.0000e+00 1.0000e+00
       21  1    1    2  505  501 -1.1445580330e+02 -3.3527488665e+00 +1.9023462710e+02 2.2203735087e+02 0.0000000000e+00 0.0000e+00 -1.0000e+00
<mgrwt>
<rscale>  4 0.39201610E+03</rscale>
<asrwt>0</asrwt>
<pdfrwt beam="1">  1       21 0.19253508E+00 0.39201610E+03</pdfrwt>
<pdfrwt beam="2">  1       21 0.53660435E-01 0.39201610E+03</pdfrwt>
<totfact> 0.41800033E+02</totfact>
</mgrwt>
</event>
<event>
 6      1 +2.5196620e+02 1.80518100e+02 7.54677100e-03 1.06301000e-01
       21 -1    0    0  505  502 +0.0000000000e+00 +0.0000000000e+00 +6.6899261434e+02 6.6899261434e+02 0.0000000000e+00 0.0000e+00 1.0000e+00
       21 -1    0    0  504  503 -0.0000000000e+00 -0.0000000000e+00 -1.3421731457e+02 1.3421731457e+02 0.0000000000e+00 0.0000e+00 1.0000e+00
        6  1    1    2  501    0 -5.9833769523e+01 -5.3559067414e+01 +9.1077566876e+01 2.1135935481e+02 1.7300000000e+02 0.0000e+00 1.0000e+00
       -6  1    1    2    0  502 +4.8351575683e+01 -1.0185248133e+01 +3.8243956281e+02 4.2264717360e+02 1.7300000000e+02 0.0000e+00 1.0000e+00
       21  1    1    2  504  501 -2.6251191781e+01 -1.7232557515e+01 -2.8613617215e+01 4.2483234323e+01 0.0000000000e+00 0.0000e+00 1.0000e+00
       21  1    1    2  505  503 +3.7733385621e+01 +8.0976873062e+01 +8.9871787300e+01 1.2672016617e+02 0.0000000000e+00 0.0000e+00 1.0000e+00
<mgrwt>
<rscale>  4 0.18051813E+03</rscale>
<asrwt>0</asrwt>
<pdfrwt beam="1">  1       21 0.10292194E+00 0.18051813E+03</pdfrwt>
<pdfrwt beam="2">  1       21 0.20648818E-01 0.18051813E+03</pdfrwt>
<totfact> 0.16797495E+04</totfact>
</mgrwt>
</event>
<event>
 6      1 +2.5196620e+02 3.66702200e+02 7.54677100e-03 1.07655700e-01
       21 -1    0    0  501  502 +0.0000000000e+00 +0.0000000000e+00 +1.4387089958e+03 1.4387089958e+03 0.0000000000e+00 0.0000e+00 -1.0000e+00
       21 -1    0    0  502  503 -0.0000000000e+00 -0.0000000000e+00 -7.5669931761e+02 7.5669931761e+02 0.0000000000e+00 0.0000e+00 1.0000e+00
        6  1    1    2  501    0 -1.9650707887e+02 +1.3251030316e+01 +2.8973337934e+02 3.9072375530e+02 1.7300000000e+02 0.0000e+00 1.0000e+00
       -6  1    1    2    0  505 +1.7277738423e+01 -3.1274369897e+02 +9.7079552155e+02 1.0346400757e+03 1.7300000000e+02 0.0000e+00 -1.0000e+00
       21  1    1    2  504  503 +1.5983097891e+02 +1.4549992592e+02 -5.7556141868e+02 6.1480656872e+02 0.0000000000e+00 0.0000e+00 1.0000e+00
       21  1    1    2  505  504 +1.9398361540e+01 +1.5399274273e+02 -2.9578040597e+00 1.5523791370e+02 0.0000000000e+00 0.0000e+00 1.0000e+00
<mgrwt>
<rscale>  4 0.33710661E+03</rscale>
<asrwt>0</asrwt>
<pdfrwt beam="1">  1       21 0.22133984E+00 0.36670221E+03</pdfrwt>
<pdfrwt beam="2">  1       21 0.11641528E+00 0.36670221E+03</pdfrwt>
<totfact> 0.46276461E+01</totfact>
</mgrwt>
</event>
<event>
 6      1 +2.5196620e+02 2.86426900e+02 7.54677100e-03 1.16321900e-01
       21 -1    0    0  504  502 +0.0000000000e+00 +0.0000000000e+00 +4.6273016088e+02 4.6273016088e+02 0.0000000000e+00 0.0000e+00 1.0000e+00
       21 -1    0    0  505  503 -0.0000000000e+00 -0.0000000000e+00 -3.1457509867e+03 3.1457509867e+03 0.0000000000e+00 0.0000e+00 1.0000e+00
        6  1    1    2  501    0 +3.3156464079e+02 -2.8077820129e+02 -6.0064152523e+02 7.6122976240e+02 1.7300000000e+02 0.0000e+00 1.0000e+00
       -6  1    1    2    0  502 -1.6742433497e+02 +1.4546415797e+02 +3.1865366675e+02 4.2504104334e+02 1.7300000000e+02 0.0000e+00 1.0000e+00
       21  1    1    2  504  503 -1.8518307757e+02 +1.3859976259e+02 -2.3832954988e+03 2.3944937045e+03 0.0000000000e+00 0.0000e+00 1.0000e+00
       21  1    1    2  505  501 +2.1042771749e+01 -3.2857192663e+00 -1.7737468562e+01 2.7716637332e+01 0.0000000000e+00 0.0000e+00 1.0000e+00
<mgrwt>
<rscale>  4 0.28642695E+03</rscale>
<asrwt>0</asrwt>
<pdfrwt beam="1">  1       21 0.71189258E-01 0.28642695E+03</pdfrwt>
<pdfrwt beam="2">  1       21 0.48396167E+00 0.28642695E+03</pdfrwt>
<totfact> 0.36829149E+00</totfact>
</mgrwt>
</event>
<event>
 6      1 +2.5196620e+02 2.81920200e+02 7.54677100e-03 9.49153200e-02
       21 -1    0    0  505  502 +0.0000000000e+00 +0.0000000000e+00 +1.2836522049e+02 1.2836522049e+02 0.0000000000e+00 0.0000e+00 1.0000e+00
       21 -1    0    0  504  503 -0.0000000000e+00 -0.0000000000e+00 -9.3791814462e+02 9.3791814462e+02 0.0000000000e+00 0.0000e+00 1.0000e+00
        6  1    1    2  501    0 -1.0728678432e+02 -1.7560986215e+02 -4.5408801608e+02 5.2770655114e+02 1.7300000000e+02 0.0000e+00 1.0000e+00
       -6  1    1    2    0  502 +1.4909864380e+02 +1.8375421481e+02 -2.9889089078e+02 4.1864159090e+02 1.7300000000e+02 0.0000e+00 1.0000e+00
       21  1    1    2  504  501 -2.0749534180e+01 -1.9158142965e+01 -8.1043036742e+01 8.5822790767e+01 0.0000000000e+00 0.0000e+00 1.0000e+00
       21  1    1    2  505  503 -2.1062325293e+01 +1.1013790301e+01 +2.4469019468e+01 3.4112432298e+01 0.0000000000e+00 0.0000e+00 1.0000e+00
<mgrwt>
<rscale>  4 0.28192020E+03</rscale>
<asrwt>0</asrwt>
<pdfrwt beam="1">  1       21 0.19748497E-01 0.28192020E+03</pdfrwt>
<pdfrwt beam="2">  1       21 0.14429509E+00 0.28192020E+03</pdfrwt>
<totfact> 0.73694125E+03</totfact>
</mgrwt>
</event>
<event>
 6      1 +2.5196620e+02 2.04300100e+02 7.54677100e-03 9.49153200e-02
       21 -1    0    0  505  502 +0.0000000000e+00 +0.0000000000e+00 +1.7771751971e+02 1.7771751971e+02 0.0000000000e+00 0.0000e+00 1.0000e+00
       21 -1    0    0  504  503 -0.0000000000e+00 -0.0000000000e+00 -1.2959884814e+03 1.2959884814e+03 0.0000000000e+00 0.0000e+00 1.0000e+00
        6  1    1    2  501    0 +4.4232351345e+01 +7.3433445583e+01 -1.1924774116e+01 1.9344294268e+02 1.7300000000e+02 0.0000e+00 1.0000e+00
       -6  1    1    2    0  502 -5.4652247484e+01 -1.2306282360e+02 -1.3119695766e+02 2.5548574991e+02 1.7300000000e+02 0.0000e+00 1.0000e+00
       21  1    1    2  504  501 -3.2088177152e+00 +3.2260605745e+01 -9.9473567549e+02 9.9526383803e+02 0.0000000000e+00 0.0000e+00 1.0000e+00
       21  1    1    2  505  503 +1.3628713854e+01 +1.7368772274e+01 +1.9586445563e+01 2.9513470508e+01 0.0000000000e+00 0.0000e+00 1.0000e+00
<mgrwt>
<rscale>  4 0.20430007E+03</rscale>
<asrwt>0</asrwt>
<pdfrwt beam="1">  1       21 0.27341157E-01 0.20430007E+03</pdfrwt>
<pdfrwt beam="2">  1       21 0.19938284E+00 0.20430007E+03</pdfrwt>
<totfact> 0.17077074E+03</totfact>
</mgrwt>
</event>
<event>
 6      1 +2.5196620e+02 3.13724000e+02 7.54677100e-03 1.16726300e-01
       21 -1    0    0  504  502 +0.0000000000e+00 +0.0000000000e+00 +2.6217205592e+02 2.6217205592e+02 0.0000000000e+00 0.0000e+00 1.0000e+00
       21 -1    0    0  505  503 -0.0000000000e+00 -0.0000000000e+00 -5.5152990363e+02 5.5152990363e+02 0.0000000000e+00 0.0000e+00 1.0000e+00
        6  1    1    2  501    0 +2.0627109488e+02 -1.0826406681e+02 -2.8407376197e+02 4.0607360784e+02 1.7300000000e+02 0.0000e+00 1.0000e+00
       -6  1    1    2    0  503 -2.4245379065e+02 +1.2529789009e+02 +5.9763968862e+01 3.2860939402e+02 1.7300000000e+02 0.0000e+00 1.0000e+00
       21  1    1    2  504  501 +1.4637217058e+01 -1.7592305241e+01 -3.8907861030e+01 4.5139328493e+01 0.0000000000e+00 0.0000e+00 1.0000e+00
       21  1    1    2  505  502 +2.1545478717e+01 +5.5848195660e-01 -2.6140193561e+01 3.3879629199e+01 0.0000000000e+00 0.0000e+00 1.0000e+00
<mgrwt>
<rscale>  4 0.31372403E+03</rscale>
<asrwt>0</asrwt>
<pdfrwt beam="1">  1       21 0.40334163E-01 0.31372403E+03</pdfrwt>
<pdfrwt beam="2">  1       21 0.84850754E-01 0.31372403E+03</pdfrwt>
<totfact> 0.66322992E+03</totfact>
</mgrwt>
</event>
<event>
 6      1 +2.5196620e+02 1.81505100e+02 7.54677100e-03 1.14954000e-01
       21 -1    0    0  501  502 +0.0000000000e+00 +0.0000000000e+00 +3.1818654578e+02 3.1818654578e+02 0.0000000000e+00 0.0000e+00 -1.0000e+00
       21 -1    0    0  505  503 -0.0000000000e+00 -0.0000000000e+00 -3.4163409938e+02 3.4163409938e+02 0.0000000000e+00 0.0000e+00 -1.0000e+00
        6  1    1    2  501    0 -3.5177917142e+01 +6.0698730136e+01 -1.2156090404e+02 2.2277314714e+02 1.7300000000e+02 0.0000e+00 -1.0000e+00
       -6  1    1    2    0  503 -8.3508378127e+01 +4.8800308400e+01 -4.8123790020e+01 2.0396082585e+02 1.7300000000e+02 0.0000e+00 1.0000e+00
       21  1    1    2  504  502 +4.8231064867e+01 -8.1078353432e+01 +1.2014975457e+02 1.5276091953e+02 0.0000000000e+00 0.0000e+00 -1.0000e+00
       21  1    1    2  505  504 +7.0455230402e+01 -2.8420685105e+01 +2.6087385893e+01 8.0325752630e+01 0.0000000000e+00 0.0000e+00 -1.0000e+00
<mgrwt>
<rscale>  4 0.17966986E+03</rscale>
<asrwt>0</asrwt>
<pdfrwt beam="1">  1       21 0.48951776E-01 0.18150508E+03</pdfrwt>
<pdfrwt beam="2">  1       21 0.52559092E-01 0.18150508E+03</pdfrwt>
<totfact> 0.13767719E+04</totfact>
</mgrwt>
</event>
<event>
 6      1 +2.5196620e+02 1.76444800e+02 7.54677100e-03 9.49153200e-02
       21 -1    0    0  505  502 +0.0000000000e+00 +0.0000000000e+00 +1.0320972863e+03 1.0320972863e+03 0.0000000000e+00 0.0000e+00 -1.0000e+00
       21 -1    0    0  501  503 -0.0000000000e+00 -0.0000000000e+00 -2.2246931766e+02 2.2246931766e+02 0.0000000000e+00 0.0000e+00 -1.0000e+00
        6  1    1    2  501    0 +3.8787382179e+00 -7.5309162565e+01 +4.5302754660e+01 1.9408208098e+02 1.7300000000e+02 0.0000e+00 1.0000e+00
       -6  1    1    2    0  502 +3.5715456653e+01 -4.2251294042e+01 +2.0672294220e+02 2.7518019646e+02 1.7300000000e+02 0.0000e+00 -1.0000e+00
       21  1    1    2  504  503 -2.5425950309e+01 +1.9234820327e+01 -1.0785730036e+02 1.1247068286e+02 0.0000000000e+00 0.0000e+00 -1.0000e+00
       21  1    1    2  505  504 -1.4168244562e+01 +9.8325636279e+01 +6.6545957210e+02 6.7283364364e+02 0.0000000000e+00 0.0000e+00 -1.0000e+00
<mgrwt>
<rscale>  4 0.17644476E+03</rscale>
<asrwt>0</asrwt>
<pdfrwt beam="1">  1       21 0.15878420E+00 0.17644476E+03</pdfrwt>
<pdfrwt beam="2">  1       21 0.34226049E-01 0.17644476E+03</pdfrwt>
<totfact> 0.21478100E+03</totfact>
</mgrwt>
</event>
<event>
 6      1 +2.5196620e+02 2.22038200e+02 7.54677100e-03 1.16128000e-01
       21 -1    0    0  501  502 +0.0000000000e+00 +0.0000000000e+00 +5.3323874013e+02 5.3323874013e+02 0.0000000000e+00 0.0000e+00 -1.0000e+00
       21 -1    0    0  505  503 -0.0000000000e+00 -0.0000000000e+00 -2.6230727000e+02 2.6230727000e+02 0.0000000000e+00 0.0000e+00 1.0000e+00
        6  1    1    2  501    0 +1.6194660939e+02 +6.9597053309e+01 +2.0381686533e+02 3.2021987558e+02 1.7300000000e+02 0.0000e+00 -1.0000e+00
       -6  1    1    2    0  503 -6.7962562440e+01 -7.8010464452e+01 +8.9904627847e+01 2.2071788456e+02 1.7300000000e+02 0.0000e+00 -1.0000e+00
       21  1    1    2  504  502 +4.9946460250e+01 +8.2688017349e+00 +6.7744463334e+01 8.4571474423e+01 0.0000000000e+00 0.0000e+00 -1.0000e+00
       21  1    1    2  505  504 -1.4393050720e+02 +1.4460940817e-01 -9.0534486394e+01 1.7003677556e+02 0.0000000000e+00 0.0000e+00 -1.0000e+00
<mgrwt>
<rscale>  4 0.22203819E+03</rscale>
<asrwt>0</asrwt>
<pdfrwt beam="1">  1       21 0.82036729E-01 0.22203819E+03</pdfrwt>
<pdfrwt beam="2">  1       21 0.40354965E-01 0.22203819E+03</pdfrwt>
<totfact> 0.75300905E+03</totfact>
</mgrwt>
</event>
<event>
 6      1 +2.5196620e+02 5.01224600e+02 7.54677100e-03 1.02776600e-01
       21 -1    0    0  501  502 +0.0000000000e+00 +0.0000000000e+00 +1.0921101883e+03 1.0921101883e+03 0.0000000000e+00 0.0000e+00 -1.0000e+00
       21 -1    0    0  505  503 -0.0000000000e+00 -0.0000000000e+00 -5.9714819663e+02 5.9714819663e+02 0.0000000000e+00 0.0000e+00 1.0000e+00
        6  1    1    2  501    0 +3.3684084878e+02 +4.4387616196e+02 +4.7758930635e+02 7.5399492711e+02 1.7300000000e+02 0.0000e+00 1.0000e+00
       -6  1    1    2    0  503 -3.3330133278e+02 +2.5901150043e+01 +1.8458599345e+02 4.1923935524e+02 1.7300000000e+02 0.0000e+00 -1.0000e+00
       21  1    1    2  504  502 -5.5371626471e+01 -1.1847186602e+02 -2.3152998319e+01 1.3280685746e+02 0.0000000000e+00 0.0000e+00 1.0000e+00
       21  1    1    2  505  504 +5.1832110470e+01 -3.5130544599e+02 -1.4406030986e+02 3.8321724509e+02 0.0000000000e+00 0.0000e+00 1.0000e+00
<mgrwt>
<rscale>  4 0.46659659E+03</rscale>
<asrwt>0</asrwt>
<pdfrwt beam="1">  1       21 0.16801695E+00 0.50122462E+03</pdfrwt>
<pdfrwt beam="2">  1       21 0.91868954E-01 0.50122462E+03</pdfrwt>
<totfact> 0.17469986E+02</totfact>
</mgrwt>
</event>
<event>
 6      1 +2.5196620e+02 5.07626200e+02 7.54677100e-03 1.14954000e-01
       21 -1    0    0  501  502 +0.0000000000e+00 +0.0000000000e+00 +1.7780181224e+03 1.7780181224e+03 0.0000000000e+00 0.0000e+00 1.0000e+00
       21 -1    0    0  505  503 -0.0000000000e+00 -0.0000000000e+00 -5.1787921245e+02 5.1787921245e+02 0.0000000000e+00 0.0000e+00 1.0000e+00
        6  1    1    2  501    0 -3.0906165997e+02 -1.0881079302e+02 -1.7020017795e+01 3.7091451757e+02 1.7300000000e+02 0.0000e+00 1.0000e+00
       -6  1    1    2    0  503 -1.4159674580e+02 -1.3874073756e+02 -2.1324825262e+02 3.3867749840e+02 1.7300000000e+02 0.0000e+00 -1.0000e+00
       21  1    1    2  504  502 +2.9837452631e+02 +1.9739681549e+02 +1.2255435004e+03 1.2766948469e+03 0.0000000000e+00 0.0000e+00 1.0000e+00
       21  1    1    2  505  504 +1.5228387946e+02 +5.0154715085e+01 +2.6486367995e+02 3.0961047196e+02 0.0000000000e+00 0.0000e+00 1.0000e+00
<mgrwt>
<rscale>  4 0.43071790E+03</rscale>
<asrwt>0</asrwt>
<pdfrwt beam="1">  1       21 0.27354125E+00 0.50762615E+03</pdfrwt>
<pdfrwt beam="2">  1       21 0.79673726E-01 0.50762615E+03</pdfrwt>
<totfact> 0.49929307E+01</totfact>
</mgrwt>
</event>
<event>
 6      1 +2.5196620e+02 1.92747100e+02 7.54677100e-03 1.12691600e-01
       21 -1    0    0  505  502 +0.0000000000e+00 +0.0000000000e+00 +2.1796445923e+02 2.1796445923e+02 0.0000000000e+00 0.0000e+00 -1.0000e+00
       21 -1    0    0  504  503 -0.0000000000e+00 -0.0000000000e+00 -1.0897688916e+03 1.0897688916e+03 0.0000000000e+00 0.0000e+00 -1.0000e+00
        6  1    1    2  501    0 +1.2358029558e+01 -5.9045201273e+01 -6.2406042894e+02 6.5039947390e+02 1.7300000000e+02 0.0000e+00 -1.0000e+00
       -6  1    1    2    0  503 +2.3559296722e+01 +1.4929394834e+02 -3.7085628440e+02 4.3624202818e+02 1.7300000000e+02 0.0000e+00 -1.0000e+00
       21  1    1    2  504  502 -5.1349352824e+01 -1.2473587882e+02 +1.2410394263e+02 1.8329643771e+02 0.0000000000e+00 0.0000e+00 -1.0000e+00
       21  1    1    2  505  501 +1.5432026543e+01 +3.4487131756e+01 -9.9166161503e-01 3.7795411002e+01 0.0000000000e+00 0.0000e+00 1.0000e+00
<mgrwt>
<rscale>  4 0.19274711E+03</rscale>
<asrwt>0</asrwt>
<pdfrwt beam="1">  1       21 0.33532994E-01 0.19274711E+03</pdfrwt>
<pdfrwt beam="2">  1       21 0.16765675E+00 0.19274711E+03</pdfrwt>
<totfact> 0.18986102E+03</totfact>
</mgrwt>
</event>
<event>
 6      1 +2.5196620e+02 2.54202000e+02 7.54677100e-03 1.15334700e-01
       21 -1    0    0  501  502 +0.0000000000e+00 +0.0000000000e+00 +1.3280509687e+03 1.3280509687e+03 0.0000000000e+00 0.0000e+00 1.0000e+00
       21 -1    0    0  502  503 -0.0000000000e+00 -0.0000000000e+00 -7.1751845249e+01 7.1751845249e+01 0.0000000000e+00 0.0000e+00 1.0000e+00
        6  1    1    2  501    0 -3.3294402031e+01 -1.8834060768e+02 +3.6388359173e+02 4.4600557176e+02 1.7300000000e+02 0.0000e+00 1.0000e+00
       -6  1    1    2    0  504 +8.2220310740e+01 +1.8051911931e+02 +7.2286232736e+02 7.6928946194e+02 1.7300000000e+02 0.0000e+00 1.0000e+00
       21  1    1    2  504  505 -1.5601539202e+01 +2.6510044824e+01 +4.7291325481e+01 5.6415068624e+01 0.0000000000e+00 0.0000e+00 -1.0000e+00
       21  1    1    2  505  503 -3.3324369507e+01 -1.8688556456e+01 +1.2226187887e+02 1.2809271162e+02 0.0000000000e+00 0.0000e+00 -1.0000e+00
<mgrwt>
<rscale>  4 0.25420201E+03</rscale>
<asrwt>0</asrwt>
<pdfrwt beam="1">  1       21 0.20431552E+00 0.25420201E+03</pdfrwt>
<pdfrwt beam="2">  1       21 0.11038746E-01 0.25420201E+03</pdfrwt>
<totfact> 0.81816670E+03</totfact>
</mgrwt>
</event>
<event>
 6      1 +2.5196620e+02 2.99585300e+02 7.54677100e-03 1.16128000e-01
       21 -1    0    0  501  502 +0.0000000000e+00 +0.0000000000e+00 +2.9992710072e+02 2.9992710072e+02 0.0000000000e+00 0.0000e+00 1.0000e+00
       21 -1    0    0  502  503 -0.0000000000e+00 -0.0000000000e+00 -8.2006456705e+02 8.2006456705e+02 0.0000000000e+00 0.0000e+00 1.0000e+00
        6  1    1    2  501    0 -4.1724787003e+01 -1.8299383546e+02 -4.1987146081e+01 2.5868827206e+02 1.7300000000e+02 0.0000e+00 1.0000e+00
       -6  1    1    2    0  504 -1.1932634675e+02 -1.3215225478e+01 +4.8087401261e+01 2.1599726242e+02 1.7300000000e+02 0.0000e+00 1.0000e+00
       21  1    1    2  504  505 -6.3781924907e+01 -1.2465606136e+01 -6.9813018492e+01 9.5380201468e+01 0.0000000000e+00 0.0000e+00 1.0000e+00
       21  1    1    2  505  503 +2.2483305866e+02 +2.0867466708e+02 -4.5642470302e+02 5.4992593181e+02 0.0000000000e+00 0.0000e+00 1.0000e+00
<mgrwt>
<rscale>  4 0.27569729E+03</rscale>
<asrwt>0</asrwt>
<pdfrwt beam="1">  1       21 0.46142631E-01 0.29958533E+03</pdfrwt>
<pdfrwt beam="2">  1       21 0.12616378E+00 0.29958533E+03</pdfrwt>
<totfact> 0.19350773E+03</totfact>
</mgrwt>
</event>
<event>
 6      1 +2.5196620e+02 2.18717300e+02 7.54677100e-03 1.16558800e-01
       21 -1    0    0  505  502 +0.0000000000e+00 +0.0000000000e+00 +1.2454167979e+03 1.2454167979e+03 0.0000000000e+00 0.0000e+00 1.0000e+00
       21 -1    0    0  504  503 -0.0000000000e+00 -0.0000000000e+00 -7.6681139502e+01 7.6681139502e+01 0.0000000000e+00 0.0000e+00 1.0000e+00
        6  1    1    2  501    0 -1.0938283058e+02 -1.0015380019e+01 +6.2632424983e+02 6.5899618920e+02 1.7300000000e+02 0.0000e+00 1.0000e+00
       -6  1    1    2    0  502 +1.3983303147e+02 +2.6110842924e+01 +1.6596747116e+02 2.7876379659e+02 1.7300000000e+02 0.0000e+00 1.0000e+00
       21  1    1    2  504  501 -1.0492786714e+01 -3.0562632129e+01 +7.2249716837e+01 7.9146665367e+01 0.0000000000e+00 0.0000e+00 -1.0000e+00
       21  1    1    2  505  503 -1.9957414173e+01 +1.4467169224e+01 +3.0419422054e+02 3.0519128621e+02 0.0000000000e+00 0.0000e+00 1.0000e+00
<mgrwt>
<rscale>  4 0.21871730E+03</rscale>
<asrwt>0</asrwt>
<pdfrwt beam="1">  1       21 0.19160257E+00 0.21871730E+03</pdfrwt>
<pdfrwt beam="2">  1       21 0.11797099E-01 0.21871730E+03</pdfrwt>
<totfact> 0.90179770E+03</totfact>
</mgrwt>
</event>
<event>
 6      1 +2.5196620e+02 2.30243900e+02 7.54677100e-03 1.12691600e-01
       21 -1    0    0  504  502 +0.0000000000e+00 +0.0000000000e+00 +3.0625086557e+02 3.0625086557e+02 0.0000000000e+00 0.0000e+00 1.0000e+00
       21 -1    0    0  501  503 -0.0000000000e+00 -0.0000000000e+00 -2.6513603325e+02 2.6513603325e+02 0.0000000000e+00 0.0000e+00 -1.0000e+00
        6  1    1    2  501    0 -1.3027433447e+02 -7.4158714475e+01 -6.5620858271e+01 2.3813024628e+02 1.7300000000e+02 0.0000e+00 -1.0000e+00
       -6  1    1    2    0  505 +1.5771762817e+02 +2.9799081115e+01 +4.0858118099e+01 2.3950202772e+02 1.7300000000e+02 0.0000e+00 1.0000e+00
       21  1    1    2  504  503 -2.5050605258e+01 +1.8630908820e+01 +5.9417004736e+01 6.7119475856e+01 0.0000000000e+00 0.0000e+00 1.0000e+00
       21  1    1    2  505  502 -2.3926884328e+00 +2.5728724539e+01 +6.4605677496e+00 2.6635148958e+01 0.0000000000e+00 0.0000e+00 -1.0000e+00
<mgrwt>
<rscale>  4 0.23024388E+03</rscale>
<asrwt>0</asrwt>
<pdfrwt beam="1">  1       21 0.47115518E-01 0.23024388E+03</pdfrwt>
<pdfrwt beam="2">  1       21 0.40790159E-01 0.23024388E+03</pdfrwt>
<totfact> 0.24450782E+04</totfact>
</mgrwt>
</event>
<event>
 6      1 +2.5196620e+02 1.92783000e+02 7.54677100e-03 1.14954000e-01
       21 -1    0    0  501  502 +0.0000000000e+00 +0.0000000000e+00 +3.7026410141e+02 3.7026410141e+02 0.0000000000e+00 0.0000e+00 1.0000e+00
       21 -1    0    0  505  503 -0.0000000000e+00 -0.0000000000e+00 -8.7655007109e+02 8.7655007109e+02 0.0000000000e+00 0.0000e+00 1.0000e+00
        6  1    1    2  501    0 -1.1602025358e+02 +6.4959337744e+01 +2.4883419130e+02 3.3094995024e+02 1.7300000000e+02 0.0000e+00 1.0000e+00
       -6  1    1    2    0  503 +7.4694803881e+01 +4.1771923211e+01 -7.6920414773e+02 7.9304995314e+02 1.7300000000e+02 0.0000e+00 1.0000e+00
       21  1    1    2  504  502 +3.6798851670e+01 -4.3653280712e+01 +1.6803202095e+01 5.9515645017e+01 0.0000000000e+00 0.0000e+00 1.0000e+00
       21  1    1    2  505  504 +4.5265980307e+00 -6.3077980243e+01 -2.7192153425e+00 6.3298624103e+01 0.0000000000e+00 0.0000e+00 1.0000e+00
<mgrwt>
<rscale>  4 0.19278300E+03</rscale>
<asrwt>0</asrwt>
<pdfrwt beam="1">  1       21 0.56963709E-01 0.19278300E+03</pdfrwt>
<pdfrwt beam="2">  1       21 0.13485386E+00 0.19278300E+03</pdfrwt>
<totfact> 0.11404969E+03</totfact>
</mgrwt>
</event>
<event>
 6      1 +2.5196620e+02 1.86843100e+02 7.54677100e-03 9.49153200e-02
       21 -1    0    0  504  502 +0.0000000000e+00 +0.0000000000e+00 +7.3544852435e+01 7.3544852435e+01 0.0000000000e+00 0.0000e+00 -1.0000e+00
       21 -1    0    0  501  503 -0.0000000000e+00 -0.0000000000e+00 -1.1841097763e+03 1.1841097763e+03 0.0000000000e+00 0.0000e+00 -1.0000e+00
        6  1    1    2  501    0 -5.3727410915e+01 +9.9377519829e+01 -4.0371545047e+02 4.5351702402e+02 1.7300000000e+02 0.0000e+00 -1.0000e+00
       -6  1    1    2    0  505 +2.5431363823e+00 -4.9050232995e+01 -5.5466932263e+02 5.8309471818e+02 1.7300000000e+02 0.0000e+00 -1.0000e+00
       21  1    1    2  504  503 +5.1420328712e+01 -8.5194130919e+01 -1.5696376665e+02 1.8584863247e+02 0.0000000000e+00 0.0000e+00 -1.0000e+00
       21  1    1    2  505  502 -2.3605417947e-01 +3.4866844085e+01 +4.7836158918e+00 3.5194254063e+01 0.0000000000e+00 0.0000e+00 -1.0000e+00
<mgrwt>
<rscale>  4 0.18684312E+03</rscale>
<asrwt>0</asrwt>
<pdfrwt beam="1">  1       21 0.11314594E-01 0.18684312E+03</pdfrwt>
<pdfrwt beam="2">  1       21 0.18217072E+00 0.18684312E+03</pdfrwt>
<totfact> 0.11517871E+04</totfact>
</mgrwt>
</event>
<event>
 6      1 +2.5196620e+02 1.81703900e+02 7.54677100e-03 1.12691600e-01
       21 -1    0    0  504  502 +0.0000000000e+00 +0.0000000000e+00 +4.0067861601e+02 4.0067861601e+02 0.0000000000e+00 0.0000e+00 1.0000e+00
       21 -1    0    0  505  503 -0.0000000000e+00 -0.0000000000e+00 -2.4752911365e+02 2.4752911365e+02 0.0000000000e+00 0.0000e+00 1.0000e+00
        6  1    1    2  501    0 -6.4502168466e+01 +4.4488766544e+00 +1.6190268025e+02 2.4560496761e+02 1.7300000000e+02 0.0000e+00 1.0000e+00
       -6  1    1    2    0  503 +5.3376997374e+01 +7.9622011632e+00 -1.5740959174e+02 2.4004016345e+02 1.7300000000e+02 0.0000e+00 1.0000e+00
       21  1    1    2  504  501 +3.1912492334e+01 -2.0684980934e+01 +1.2184701151e+02 1.2764391805e+02 0.0000000000e+00 0.0000e+00 1.0000e+00
       21  1    1    2  505  502 -2.0787321241e+01 +8.2739031161e+00 +2.6809402344e+01 3.4918680548e+01 0.0000000000e+00 0.0000e+00 -1.0000e+00
<mgrwt>
<rscale>  4 0.18170388E+03</rscale>
<asrwt>0</asrwt>
<pdfrwt beam="1">  1       21 0.61642864E-01 0.18170388E+03</pdfrwt>
<pdfrwt beam="2">  1       21 0.38081402E-01 0.18170388E+03</pdfrwt>
<totfact> 0.16369679E+04</totfact>
</mgrwt>
</event>
<event>
 6      1 +2.5196620e+02 1.99602600e+02 7.54677100e-03 9.28652600e-02
       21 -1    0    0  505  502 +0.0000000000e+00 +0.0000000000e+00 +1.2368077646e+02 1.2368077646e+02 0.0000000000e+00 0.0000e+00 -1.0000e+00
       21 -1    0    0  501  503 -0.0000000000e+00 -0.0000000000e+00 -8.9167782789e+02 8.9167782789e+02 0.0000000000e+00 0.0000e+00 -1.0000e+00
        6  1    1    2  501    0 -4.9070586461e+01 +4.1106162208e+01 -4.1369522623e+02 4.5295737022e+02 1.7300000000e+02 0.0000e+00 -1.0000e+00
       -6  1    1    2    0  502 +8.6647284587e+01 -1.8141094994e+02 -2.9045783216e+02 3.9333501872e+02 1.7300000000e+02 0.0000e+00 -1.0000e+00
       21  1    1    2  504  503 +1.2219927692e+01 +5.3446577223e+01 -3.4327785910e+01 6.4685857303e+01 0.0000000000e+00 0.0000e+00 -1.0000e+00
       21  1    1    2  505  504 -4.9796625819e+01 +8.6858210514e+01 -2.9516207137e+01 1.0438035812e+02 0.0000000000e+00 0.0000e+00 -1.0000e+00
<mgrwt>
<rscale>  4 0.19960257E+03</rscale>
<asrwt>0</asrwt>
<pdfrwt beam="1">  1       21 0.19027811E-01 0.19960257E+03</pdfrwt>
<pdfrwt beam="2">  1       21 0.13718121E+00 0.19960257E+03</pdfrwt>
<totfact> 0.95019292E+03</totfact>
</mgrwt>
</event>
<event>
 6      1 +2.5196620e+02 2.12880800e+02 7.54677100e-03 1.06301000e-01
       21 -1    0    0  505  502 +0.0000000000e+00 +0.0000000000e+00 +6.5467431868e+02 6.5467431868e+02 0.0000000000e+00 0.0000e+00 -1.0000e+00
       21 -1    0    0  501  503 -0.0000000000e+00 -0.0000000000e+00 -1.2926302724e+02 1.2926302724e+02 0.0000000000e+00 0.0000e+00 -1.0000e+00
        6  1    1    2  501    0 -1.1316966910e+02 -6.2193750224e+01 +2.3568696863e+02 3.1961349119e+02 1.7300000000e+02 0.0000e+00 -1.0000e+00
       -6  1    1    2    0  502 +7.5557095227e+01 +1.0769421686e+02 +1.4568171885e+02 2.6164686543e+02 1.7300000000e+02 0.0000e+00 -1.0000e+00
       21  1    1    2  504  503 +4.2576802789e+00 -3.1984575883e+01 -1.7820808561e+01 3.6860848519e+01 0.0000000000e+00 0.0000e+00 -1.0000e+00
       21  1    1    2  505  504 +3.3354893599e+01 -1.3515890757e+01 +1.6186341252e+02 1.6581614078e+02 0.0000000000e+00 0.0000e+00 -1.0000e+00
<mgrwt>
<rscale>  4 0.21288081E+03</rscale>
<asrwt>0</asrwt>
<pdfrwt beam="1">  1       21 0.10071912E+00 0.21288081E+03</pdfrwt>
<pdfrwt beam="2">  1       21 0.19886620E-01 0.21288081E+03</pdfrwt>
<totfact> 0.18594255E+04</totfact>
</mgrwt>
</event>
<event>
 6      1 +2.5196620e+02 3.73474300e+02 7.54677100e-03 1.14954000e-01
       21 -1    0    0  501  502 +0.0000000000e+00 +0.0000000000e+00 +2.6098867162e+03 2.6098867162e+03 0.0000000000e+00 0.0000e+00 1.0000e+00
       21 -1    0    0  505  503 -0.0000000000e+00 -0.0000000000e+00 -1.0695616105e+02 1.0695616105e+02 0.0000000000e+00 0.0000e+00 -1.0000e+00
        6  1    1    2  501    0 -3.6569555611e+02 -1.0706270958e+02 +7.8777667497e+02 8.9202956968e+02 1.7300000000e+02 0.0000e+00 -1.0000e+00
       -6  1    1    2    0  503 +2.8450397330e+02 +8.8008155853e+01 +5.0384258280e+02 6.1030672171e+02 1.7300000000e+02 0.0000e+00 1.0000e+00
       21  1    1    2  504  502 +3.7764184041e+01 +1.0291931814e+01 +7.6532365123e+02 7.6632391884e+02 0.0000000000e+00 0.0000e+00 1.0000e+00
       21  1    1    2  505  504 +4.3427398778e+01 +8.7626219119e+00 +4.4598764612e+02 4.4818266700e+02 0.0000000000e+00 0.0000e+00 1.0000e+00
<mgrwt>
<rscale>  4 0.37347435E+03</rscale>
<asrwt>0</asrwt>
<pdfrwt beam="1">  1       21 0.40152099E+00 0.37347435E+03</pdfrwt>
<pdfrwt beam="2">  1       21 0.16454796E-01 0.37347435E+03</pdfrwt>
<totfact> 0.22828913E+02</totfact>
</mgrwt>
</event>
<event>
 6      1 +2.5196620e+02 2.10057800e+02 7.54677100e-03 1.09711200e-01
       21 -1    0    0  504  502 +0.0000000000e+00 +0.0000000000e+00 +1.2208744203e+02 1.2208744203e+02 0.0000000000e+00 0.0000e+00 -1.0000e+00
       21 -1    0    0  505  503 -0.0000000000e+00 -0.0000000000e+00 -6.0121779692e+02 6.0121779692e+02 0.0000000000e+00 0.0000e+00 -1.0000e+00
        6  1    1    2  501    0 -8.5764766450e+01 -9.8429357050e+01 -2.2893140809e+02 3.1524993752e+02 1.7300000000e+02 0.0000e+00 -1.0000e+00
       -6  1    1    2    0  503 +7.9345793502e+01 +7.5305965978e+01 -2.3894935140e+02 3.1463079314e+02 1.7300000000e+02 0.0000e+00 -1.0000e+00
       21  1    1    2  504  501 +2.5346947597e+00 -3.4675110654e+01 -2.7622931099e+00 3.4877187954e+01 0.0000000000e+00 0.0000e+00 1.0000e+00
       21  1    1    2  505  502 +3.8842781884e+00 +5.7798501726e+01 -8.4873022848e+00 5.8547320339e+01 0.0000000000e+00 0.0000e+00 1.0000e+00
<mgrwt>
<rscale>  4 0.21005785E+03</rscale>
<asrwt>0</asrwt>
<pdfrwt beam="1">  1       21 0.18782683E-01 0.21005785E+03</pdfrwt>
<pdfrwt beam="2">  1       21 0.92495045E-01 0.21005785E+03</pdfrwt>
<totfact> 0.25325456E+04</totfact>
</mgrwt>
</event>
<event>
 6      1 +2.5196620e+02 2.00602800e+02 7.54677100e-03 9.49153200e-02
       21 -1    0    0  505  502 +0.0000000000e+00 +0.0000000000e+00 +8.6109792226e+02 8.6109792226e+02 0.0000000000e+00 0.0000e+00 -1.0000e+00
       21 -1    0    0  501  503 -0.0000000000e+00 -0.0000000000e+00 -2.1083381840e+02 2.1083381840e+02 0.0000000000e+00 0.0000e+00 -1.0000e+00
        6  1    1    2  501    0 +3.7172967705e+01 +2.6507829928e+01 +2.3676045798e+02 2.9676423140e+02 1.7300000000e+02 0.0000e+00 -1.0000e+00
       -6  1    1    2    0  502 -8.8883959212e+01 +8.7632291854e+01 -1.0030917951e+02 2.3573440197e+02 1.7300000000e+02 0.0000e+00 -1.0000e+00
       21  1    1    2  504  503 +2.2108695965e+01 -4.3695272491e+01 +5.2339452670e+01 7.1676283254e+01 0.0000000000e+00 0.0000e+00 -1.0000e+00
       21  1    1    2  505  504 +2.9602295542e+01 -7.0444849291e+01 +4.6147337272e+02 4.6775682403e+02 0.0000000000e+00 0.0000e+00 -1.0000e+00
<mgrwt>
<rscale>  4 0.20060278E+03</rscale>
<asrwt>0</asrwt>
<pdfrwt beam="1">  1       21 0.13247660E+00 0.20060278E+03</pdfrwt>
<pdfrwt beam="2">  1       21 0.32435972E-01 0.20060278E+03</pdfrwt>
<totfact> 0.37435640E+03</totfact>
</mgrwt>
</event>
<event>
 6      1 +2.5196620e+02 2.47490900e+02 7.54677100e-03 1.07655700e-01
       21 -1    0    0  501  502 +0.0000000000e+00 +0.0000000000e+00 +7.2545474383e+02 7.2545474383e+02 0.0000000000e+00 0.0000e+00 1.0000e+00
       21 -1    0    0  502  503 -0.0000000000e+00 -0.0000000000e+00 -6.7459976640e+02 6.7459976640e+02 0.0000000000e+00 0.0000e+00 1.0000e+00
        6  1    1    2  501    0 -1.2363694176e+02 +8.4368340562e+01 +4.6382515363e+01 2.3341903947e+02 1.7300000000e+02 0.0000e+00 -1.0000e+00
       -6  1    1    2    0  505 +1.4330323061e+02 -7.8688453246e+01 +5.2109031551e+02 5.7288027151e+02 1.7300000000e+02 0.0000e+00 1.0000e+00
       21  1    1    2  504  503 -6.1568501744e+01 -7.4646164332e+00 -5.4146632338e+02 5.4500658735e+02 0.0000000000e+00 0.0000e+00 1.0000e+00
       21  1    1    2  505  504 +4.1902212892e+01 +1.7847291171e+00 +2.4848469943e+01 4.8748611895e+01 0.0000000000e+00 0.0000e+00 1.0000e+00
<mgrwt>
<rscale>  4 0.24749094E+03</rscale>
<asrwt>0</asrwt>
<pdfrwt beam="1">  1       21 0.11160842E+00 0.24749094E+03</pdfrwt>
<pdfrwt beam="2">  1       21 0.10378458E+00 0.24749094E+03</pdfrwt>
<totfact> 0.44817292E+02</totfact>
</mgrwt>
</event>
<event>
 6      1 +2.5196620e+02 1.98307900e+02 7.54677100e-03 1.16128000e-01
       21 -1    0    0  501  502 +0.0000000000e+00 +0.0000000000e+00 +6.5746671724e+02 6.5746671724e+02 0.0000000000e+00 0.0000e+00 -1.0000e+00
       21 -1    0    0  505  503 -0.0000000000e+00 -0.0000000000e+00 -6.1833789007e+02 6.1833789007e+02 0.0000000000e+00 0.0000e+00 -1.0000e+00
        6  1    1    2  501    0 -5.8252362001e+00 +1.0305842846e+02 +5.3440933363e+02 5.7111934736e+02 1.7300000000e+02 0.0000e+00 -1.0000e+00
       -6  1    1    2    0  503 +3.9319562262e+01 -6.3110776860e+01 +9.8933867452e+00 1.8856266129e+02 1.7300000000e+02 0.0000e+00 -1.0000e+00
       21  1    1    2  504  502 -4.2179037219e+00 +2.0156538233e+01 -3.0733404150e+01 3.6994849317e+01 0.0000000000e+00 0.0000e+00 1.0000e+00
       21  1    1    2  505  504 -2.9276422340e+01 -6.0104189834e+01 -4.7444048905e+02 4.7912774935e+02 0.0000000000e+00 0.0000e+00 -1.0000e+00
<mgrwt>
<rscale>  4 0.19830790E+03</rscale>
<asrwt>0</asrwt>
<pdfrwt beam="1">  1       21 0.10114873E+00 0.19830790E+03</pdfrwt>
<pdfrwt beam="2">  1       21 0.95128907E-01 0.19830790E+03</pdfrwt>
<totfact> 0.73339088E+02</totfact>
</mgrwt>
</event>
<event>
 6      1 +2.5196620e+02 2.04061300e+02 7.54677100e-03 1.06301000e-01
       21 -1    0    0  503  502 +0.0000000000e+00 +0.0000000000e+00 +7.4131171242e+02 7.4131171242e+02 0.0000000000e+00 0.0000e+00 1.0000e+00
       21 -1    0    0  504  503 -0.0000000000e+00 -0.0000000000e+00 -2.9695586537e+02 2.9695586537e+02 0.0000000000e+00 0.0000e+00 1.0000e+00
        6  1    1    2  501    0 -8.3297615882e+00 +5.5366336451e+01 -1.4602983737e+02 2.3321348491e+02 1.7300000000e+02 0.0000e+00 1.0000e+00
       -6  1    1    2    0  505 -3.5624981605e+01 -1.1165768341e+02 +2.9440551324e+02 3.6102656939e+02 1.7300000000e+02 0.0000e+00 1.0000e+00
       21  1    1    2  504  501 +7.6020115170e+00 +6.3874204442e+01 -5.8895254608e+01 8.7214423048e+01 0.0000000000e+00 0.0000e+00 1.0000e+00
       21  1    1    2  505  502 +3.6352731676e+01 -7.5828574794e+00 +3.5487542578e+02 3.5681310045e+02 0.0000000000e+00 0.0000e+00 1.0000e+00
<mgrwt>
<rscale>  4 0.20406131E+03</rscale>
<asrwt>0</asrwt>
<pdfrwt beam="1">  1       21 0.11404796E+00 0.20406131E+03</pdfrwt>
<pdfrwt beam="2">  1       21 0.45685518E-01 0.20406131E+03</pdfrwt>
<totfact> 0.27209081E+03</totfact>
</mgrwt>
</event>
<event>
 6      1 +2.5196620e+02 3.20600400e+02 7.54677100e-03 1.06301000e-01
       21 -1    0    0  505  502 +0.0000000000e+00 +0.0000000000e+00 +1.0088426254e+02 1.0088426254e+02 0.0000000000e+00 0.0000e+00 -1.0000e+00
       21 -1    0    0  504  503 -0.0000000000e+00 -0.0000000000e+00 -2.0896801496e+03 2.0896801496e+03 0.0000000000e+00 0.0000e+00 1.0000e+00
        6  1    1    2  501    0 +2.8370526308e+02 +7.4171234598e+00 -5.7549306694e+02 6.6457878398e+02 1.7300000000e+02 0.0000e+00 -1.0000e+00
       -6  1    1    2    0  503 -2.6187720401e+02 +4.4841335582e+01 -1.3326436771e+03 1.3698388903e+03 1.7300000000e+02 0.0000e+00 -1.0000e+00
       21  1    1    2  504  502 -4.2764651759e+01 -3.4139256782e+01 -1.0556532975e+02 1.1890476499e+02 0.0000000000e+00 0.0000e+00 -1.0000e+00
       21  1    1    2  505  501 +2.0936592690e+01 -1.8119202260e+01 +2.4906186724e+01 3.7241972841e+01 0.0000000000e+00 0.0000e+00 -1.0000e+00
<mgrwt>
<rscale>  4 0.32060042E+03</rscale>
<asrwt>0</asrwt>
<pdfrwt beam="1">  1       21 0.15520656E-01 0.32060042E+03</pdfrwt>
<pdfrwt beam="2">  1       21 0.32148924E+00 0.32060042E+03</pdfrwt>
<totfact> 0.82400577E+02</totfact>
</mgrwt>
</event>
<event>
 6      1 +2.5196620e+02 2.59689200e+02 7.54677100e-03 1.09711200e-01
       21 -1    0    0  505  502 +0.0000000000e+00 +0.0000000000e+00 +8.4932435902e+02 8.4932435902e+02 0.0000000000e+00 0.0000e+00 -1.0000e+00
       21 -1    0    0  504  503 -0.0000000000e+00 -0.0000000000e+00 -6.0650987820e+02 6.0650987820e+02 0.0000000000e+00 0.0000e+00 1.0000e+00
        6  1    1    2  501    0 -7.4385045433e+01 +1.8621269917e+02 -1.7567619558e+02 3.1780407487e+02 1.7300000000e+02 0.0000e+00 1.0000e+00
       -6  1    1    2    0  503 +4.2739888552e+01 +3.7635825498e+01 -2.9588995577e+02 3.4745218284e+02 1.7300000000e+02 0.0000e+00 1.0000e+00
       21  1    1    2  504  502 +2.6370791748e+01 -7.0226359888e+01 +5.8463384591e+02 5.8942675038e+02 0.0000000000e+00 0.0000e+00 -1.0000e+00
       21  1    1    2  505  501 +5.2743651328e+00 -1.5362216478e+02 +1.2974678625e+02 2.0115122913e+02 0.0000000000e+00 0.0000e+00 1.0000e+00
<mgrwt>
<rscale>  4 0.23743071E+03</rscale>
<asrwt>0</asrwt>
<pdfrwt beam="1">  1       21 0.13066529E+00 0.25968918E+03</pdfrwt>
<pdfrwt beam="2">  1       21 0.93309212E-01 0.25968918E+03</pdfrwt>
<totfact> 0.38528673E+02</totfact>
</mgrwt>
</event>
<event>
 6      1 +2.5196620e+02 2.62975900e+02 7.54677100e-03 1.15334700e-01
       21 -1    0    0  501  502 +0.0000000000e+00 +0.0000000000e+00 +3.7063398044e+02 3.7063398044e+02 0.0000000000e+00 0.0000e+00 1.0000e+00
       21 -1    0    0  502  503 -0.0000000000e+00 -0.0000000000e+00 -4.7253251481e+02 4.7253251481e+02 0.0000000000e+00 0.0000e+00 1.0000e+00
        6  1    1    2  501    0 -1.4795998288e+02 +7.3228575254e+01 -1.7220544350e+02 2.9468338185e+02 1.7300000000e+02 0.0000e+00 1.0000e+00
       -6  1    1    2    0  504 +2.0314592582e+01 +1.1236184764e+01 +3.7133067144e+01 1.7845671519e+02 1.7300000000e+02 0.0000e+00 1.0000e+00
       21  1    1    2  504  505 +1.9591956465e+02 -5.4384880308e+01 +1.3480110492e+02 2.4395394833e+02 0.0000000000e+00 0.0000e+00 1.0000e+00
       21  1    1    2  505  503 -6.8274174350e+01 -3.0079879710e+01 -1.0162726293e+02 1.2607244988e+02 0.0000000000e+00 0.0000e+00 1.0000e+00
<mgrwt>
<rscale>  4 0.23691082E+03</rscale>
<asrwt>0</asrwt>
<pdfrwt beam="1">  1       21 0.57020612E-01 0.26297587E+03</pdfrwt>
<pdfrwt beam="2">  1       21 0.72697310E-01 0.26297587E+03</pdfrwt>
<totfact> 0.46907999E+03</totfact>
</mgrwt>
</event>
<event>
 6      1 +2.5196620e+02 2.70844200e+02 7.54677100e-03 1.07655700e-01
       21 -1    0    0  501  502 +0.0000000000e+00 +0.0000000000e+00 +7.2668524158e+01 7.2668524158e+01 0.0000000000e+00 0.0000e+00 -1.0000e+00
       21 -1    0    0  504  503 -0.0000000000e+00 -0.0000000000e+00 -1.5831418178e+03 1.5831418178e+03 0.0000000000e+00 0.0000e+00 1.0000e+00
        6  1    1    2  501    0 -1.9825912652e+02 -1.3539532540e+02 -8.1388647758e+02 8.6601314873e+02 1.7300000000e+02 0.0000e+00 1.0000e+00
       -6  1    1    2    0  505 +1.5750015244e+02 +1.1339108247e+02 -3.3573381105e+02 4.2462928241e+02 1.7300000000e+02 0.0000e+00 -1.0000e+00
       21  1    1    2  504  502 +2.8392981260e+01 +3.5845413138e+00 -2.7536064006e+02 2.7684380509e+02 0.0000000000e+00 0.0000e+00 -1.0000e+00
       21  1    1    2  505  503 +1.2365992819e+01 +1.8419701619e+01 -8.5492364921e+01 8.8324105690e+01 0.0000000000e+00 0.0000e+00 -1.0000e+00
<mgrwt>
<rscale>  4 0.27084418E+03</rscale>
<asrwt>0</asrwt>
<pdfrwt beam="1">  1       21 0.11179773E-01 0.27084418E+03</pdfrwt>
<pdfrwt beam="2">  1       21 0.24356028E+00 0.27084418E+03</pdfrwt>
<totfact> 0.45110774E+03</totfact>
</mgrwt>
</event>
<event>
 6      1 +2.5196620e+02 2.36972600e+02 7.54677100e-03 1.07326700e-01
       21 -1    0    0  503  502 +0.0000000000e+00 +0.0000000000e+00 +1.3316332921e+03 1.3316332921e+03 0.0000000000e+00 0.0000e+00 -1.0000e+00
       21 -1    0    0  501  503 -0.0000000000e+00 -0.0000000000e+00 -1.7039789390e+02 1.7039789390e+02 0.0000000000e+00 0.0000e+00 -1.0000e+00
        6  1    1    2  501    0 -4.8546741676e+01 -1.1369342350e+02 +1.3660166187e+02 2.5272909350e+02 1.7300000000e+02 0.0000e+00 1.0000e+00
       -6  1    1    2    0  505 +1.9380350346e+02 -2.1253231794e+01 +1.0154823694e+03 1.0484011352e+03 1.7300000000e+02 0.0000e+00 -1.0000e+00
       21  1    1    2  504  502 -2.9088002729e+01 +1.3525099573e+01 -4.0848893075e+00 3.2337695370e+01 0.0000000000e+00 0.0000e+00 1.0000e+00
       21  1    1    2  505  504 -1.1616875906e+02 +1.2142155572e+02 +1.3236256233e+01 1.6856326188e+02 0.0000000000e+00 0.0000e+00 -1.0000e+00
<mgrwt>
<rscale>  4 0.23697264E+03</rscale>
<asrwt>0</asrwt>
<pdfrwt beam="1">  1       21 0.20486665E+00 0.23697264E+03</pdfrwt>
<pdfrwt beam="2">  1       21 0.26215061E-01 0.23697264E+03</pdfrwt>
<totfact> 0.16551550E+03</totfact>
</mgrwt>
</event>
<event>
 6      1 +2.5196620e+02 3.80039100e+02 7.54677100e-03 1.16726300e-01
       21 -1    0    0  504  502 +0.0000000000e+00 +0.0000000000e+00 +9.1765441684e+02 9.1765441684e+02 0.0000000000e+00 0.0000e+00 -1.0000e+00
       21 -1    0    0  505  503 -0.0000000000e+00 -0.0000000000e+00 -3.4090374121e+02 3.4090374121e+02 0.0000000000e+00 0.0000e+00 1.0000e+00
        6  1    1    2  501    0 -4.6717867492e+01 +3.6612266651e+02 -3.4570788288e+01 4.0908740567e+02 1.7300000000e+02 0.0000e+00 1.0000e+00
       -6  1    1    2    0  503 +4.2607090802e+01 -3.2871197922e+02 +6.4946457956e+02 7.4939987294e+02 1.7300000000e+02 0.0000e+00 -1.0000e+00
       21  1    1    2  504  501 -1.4799368315e+01 -6.0505690966e+01 -2.1500536948e+01 6.5895622244e+01 0.0000000000e+00 0.0000e+00 1.0000e+00
       21  1    1    2  505  502 +1.8910145005e+01 +2.3095003682e+01 -1.6642578691e+01 3.4175257200e+01 0.0000000000e+00 0.0000e+00 -1.0000e+00
<mgrwt>
<rscale>  4 0.38003913E+03</rscale>
<asrwt>0</asrwt>
<pdfrwt beam="1">  1       21 0.14117760E+00 0.38003913E+03</pdfrwt>
<pdfrwt beam="2">  1       21 0.52446730E-01 0.38003913E+03</pdfrwt>
<totfact> 0.10556190E+03</totfact>
</mgrwt>
</event>
<event>
 6      1 +2.5196620e+02 2.73664200e+02 7.54677100e-03 1.13287100e-01
       21 -1    0    0  504  502 +0.0000000000e+00 +0.0000000000e+00 +2.4650209261e+02 2.4650209261e+02 0.0000000000e+00 0.0000e+00 -1.0000e+00
       21 -1    0    0  505  503 -0.0000000000e+00 -0.0000000000e+00 -5.9880838897e+02 5.9880838897e+02 0.0000000000e+00 0.0000e+00 1.0000e+00
        6  1    1    2  501    0 -6.8573569240e+01 +2.1506461360e+02 -2.4587569177e+02 3.7595076569e+02 1.7300000000e+02 0.0000e+00 -1.0000e+00
       -6  1    1    2    0  503 +4.6250040416e+01 -1.9260019500e+02 -1.8751783540e+02 3.2299510824e+02 1.7300000000e+02 0.0000e+00 1.0000e+00
       21  1    1    2  504  501 +4.9038949626e+01 +2.2433399219e+01 +5.1239745280e+00 5.4169466454e+01 0.0000000000e+00 0.0000e+00 -1.0000e+00
       21  1    1    2  505  502 -2.6715420801e+01 -4.4897817826e+01 +7.5963256288e+01 9.2195141195e+01 0.0000000000e+00 0.0000e+00 -1.0000e+00
<mgrwt>
<rscale>  4 0.27366420E+03</rscale>
<asrwt>0</asrwt>
<pdfrwt beam="1">  1       21 0.37923399E-01 0.27366420E+03</pdfrwt>
<pdfrwt beam="2">  1       21 0.92124367E-01 0.27366420E+03</pdfrwt>
<totfact> 0.63314226E+03</totfact>
</mgrwt>
</event>
<event>
 6      1 +2.5196620e+02 1.77976700e+02 7.54677100e-03 1.06301000e-01
       21 -1    0    0  505  502 +0.0000000000e+00 +0.0000000000e+00 +9.1375557776e+01 9.1375557776e+01 0.0000000000e+00 0.0000e+00 1.0000e+00
       21 -1    0    0  504  503 -0.0000000000e+00 -0.0000000000e+00 -2.3633486813e+03 2.3633486813e+03 0.0000000000e+00 0.0000e+00 1.0000e+00
        6  1    1    2  501    0 -1.4495029653e+01 +6.9887007726e+01 -1.2999165235e+03 1.3133187990e+03 1.7300000000e+02 0.0000e+00 1.0000e+00
       -6  1    1    2    0  502 +9.8331626607e+00 -5.9438450643e+00 -3.0106955532e+01 1.7597570615e+02 1.7300000000e+02 0.0000e+00 1.0000e+00
       21  1    1    2  504  501 -1.8305883095e+01 -4.1685561405e+01 -9.3026595608e+02 9.3137937514e+02 0.0000000000e+00 0.0000e+00 1.0000e+00
       21  1    1    2  505  503 +2.2967750087e+01 -2.2257601257e+01 -1.1683688379e+01 3.4050358763e+01 0.0000000000e+00 0.0000e+00 1.0000e+00
<mgrwt>
<rscale>  4 0.17797675E+03</rscale>
<asrwt>0</asrwt>
<pdfrwt beam="1">  1       21 0.14057780E-01 0.17797675E+03</pdfrwt>
<pdfrwt beam="2">  1       21 0.36359206E+00 0.17797675E+03</pdfrwt>
<totfact> 0.65625111E+02</totfact>
</mgrwt>
</event>
<event>
 6      1 +2.5196620e+02 1.78118600e+02 7.54677100e-03 1.17380300e-01
       21 -1    0    0  503  502 +0.0000000000e+00 +0.0000000000e+00 +2.1470603880e+03 2.1470603880e+03 0.0000000000e+00 0.0000e+00 -1.0000e+00
       21 -1    0    0  505  503 -0.0000000000e+00 -0.0000000000e+00 -5.7317736420e+01 5.7317736420e+01 0.0000000000e+00 0.0000e+00 -1.0000e+00
        6  1    1    2  501    0 -7.4719501019e+01 -4.8314749184e+01 +2.0720202747e+02 2.8421646506e+02 1.7300000000e+02 0.0000e+00 -1.0000e+00
       -6  1    1    2    0  502 -5.7331595051e+01 -2.4095968461e+01 +1.4308209123e+03 1.4425827570e+03 1.7300000000e+02 0.0000e+00 -1.0000e+00
       21  1    1    2  504  501 +7.8581032000e+01 +6.1639069258e+01 +3.1176787740e+02 3.2737373570e+02 0.0000000000e+00 0.0000e+00 -1.0000e+00
       21  1    1    2  505  504 +5.3470064069e+01 +1.0771648387e+01 +1.3995183438e+02 1.5020516671e+02 0.0000000000e+00 0.0000e+00 1.0000e+00
<mgrwt>
<rscale>  4 0.17811865E+03</rscale>
<asrwt>0</asrwt>
<pdfrwt beam="1">  1       21 0.33031692E+00 0.17811865E+03</pdfrwt>
<pdfrwt beam="2">  1       21 0.88181150E-02 0.17811865E+03</pdfrwt>
<totfact> 0.23552456E+03</totfact>
</mgrwt>
</event>
<event>
 6      1 +2.5196620e+02 2.54911100e+02 7.54677100e-03 1.12691600e-01
       21 -1    0    0  503  502 +0.0000000000e+00 +0.0000000000e+00 +5.3365390684e+02 5.3365390684e+02 0.0000000000e+00 0.0000e+00 -1.0000e+00
       21 -1    0    0  501  503 -0.0000000000e+00 -0.0000000000e+00 -1.9726021594e+03 1.9726021594e+03 0.0000000000e+00 0.0000e+00 -1.0000e+00
        6  1    1    2  501    0 +1.7524038594e+02 +4.3820043854e+01 -1.6885508992e+03 1.7069746712e+03 1.7300000000e+02 0.0000e+00 -1.0000e+00
       -6  1    1    2    0  504 -2.5242987883e+02 -2.2557526394e+01 -1.7583546092e+02 3.5366197850e+02 1.7300000000e+02 0.0000e+00 -1.0000e+00
       21  1    1    2  504  505 +1.0303633333e+02 -2.5887297321e+01 +3.3439864447e+02 3.5086905189e+02 0.0000000000e+00 0.0000e+00 -1.0000e+00
       21  1    1    2  505  502 -2.5846840443e+01 +4.6247798603e+00 +9.1039463091e+01 9.4750364588e+01 0.0000000000e+00 0.0000e+00 -1.0000e+00
<mgrwt>
<rscale>  4 0.25491115E+03</rscale>
<asrwt>0</asrwt>
<pdfrwt beam="1">  1       21 0.82100603E-01 0.25491115E+03</pdfrwt>
<pdfrwt beam="2">  1       21 0.30347725E+00 0.25491115E+03</pdfrwt>
<totfact> 0.38414405E+01</totfact>
</mgrwt>
</event>
<event>
 6      1 +2.5196620e+02 2.30198100e+02 7.54677100e-03 1.16321900e-01
       21 -1    0    0  504  502 +0.0000000000e+00 +0.0000000000e+00 +1.8001326103e+03 1.8001326103e+03 0.0000000000e+00 0.0000e+00 1.0000e+00
       21 -1    0    0  501  503 -0.0000000000e+00 -0.0000000000e+00 -3.9166027456e+02 3.9166027456e+02 0.0000000000e+00 0.0000e+00 -1.0000e+00
        6  1    1    2  501    0 -1.1788317345e+02 +8.0502302241e+01 +6.7495041757e+02 7.1124125965e+02 1.7300000000e+02 0.0000e+00 -1.0000e+00
       -6  1    1    2    0  502 +1.5673338955e+02 -4.0685805663e+01 +1.0904525256e+03 1.1159016089e+03 1.7300000000e+02 0.0000e+00 1.0000e+00
       21  1    1    2  504  505 -2.5321097567e+01 -9.2253259557e+00 -2.7258476250e+02 2.7391370424e+02 0.0000000000e+00 0.0000e+00 -1.0000e+00
       21  1    1    2  505  503 -1.3529118532e+01 -3.0591170623e+01 -8.4345844937e+01 9.0736312061e+01 0.0000000000e+00 0.0000e+00 -1.0000e+00
<mgrwt>
<rscale>  4 0.23019805E+03</rscale>
<asrwt>0</asrwt>
<pdfrwt beam="1">  1       21 0.27694347E+00 0.23019805E+03</pdfrwt>
<pdfrwt beam="2">  1       21 0.60255428E-01 0.23019805E+03</pdfrwt>
<totfact> 0.11266903E+02</totfact>
</mgrwt>
</event>
<event>
 6      1 +2.5196620e+02 2.43818900e+02 7.54677100e-03 1.16321900e-01
       21 -1    0    0  505  502 +0.0000000000e+00 +0.0000000000e+00 +1.7167579392e+03 1.7167579392e+03 0.0000000000e+00 0.0000e+00 -1.0000e+00
       21 -1    0    0  504  503 -0.0000000000e+00 -0.0000000000e+00 -1.0890183285e+02 1.0890183285e+02 0.0000000000e+00 0.0000e+00 1.0000e+00
        6  1    1    2  501    0 -1.5679805423e+02 -7.1554561229e+00 +1.0545941742e+03 1.0801549438e+03 1.7300000000e+02 0.0000e+00 -1.0000e+00
       -6  1    1    2    0  502 +2.0427003517e+02 +4.4966217768e+01 +5.7424991018e+02 6.3516940052e+02 1.7300000000e+02 0.0000e+00 -1.0000e+00
       21  1    1    2  504  501 -3.0283925656e+01 -5.5658099957e+01 +1.6428242529e+01 6.5458592993e+01 0.0000000000e+00 0.0000e+00 1.0000e+00
       21  1    1    2  505  503 -1.7188055286e+01 +1.7847338312e+01 -3.7416220593e+01 4.4876834702e+01 0.0000000000e+00 0.0000e+00 1.0000e+00
<mgrwt>
<rscale>  4 0.24381890E+03</rscale>
<asrwt>0</asrwt>
<pdfrwt beam="1">  1       21 0.26411659E+00 0.24381890E+03</pdfrwt>
<pdfrwt beam="2">  1       21 0.16754129E-01 0.24381890E+03</pdfrwt>
<totfact> 0.16674031E+03</totfact>
</mgrwt>
</event>
<event>
 6      1 +2.5196620e+02 2.30228500e+02 7.54677100e-03 9.49153200e-02
       21 -1    0    0  504  502 +0.0000000000e+00 +0.0000000000e+00 +3.5912631243e+03 3.5912631243e+03 0.0000000000e+00 0.0000e+00 -1.0000e+00
       21 -1    0    0  501  503 -0.0000000000e+00 -0.0000000000e+00 -1.3856452324e+02 1.3856452324e+02 0.0000000000e+00 0.0000e+00 -1.0000e+00
        6  1    1    2  501    0 -1.7766017419e+02 +6.4913571801e+01 +8.0352868988e+01 2.6863077421e+02 1.7300000000e+02 0.0000e+00 -1.0000e+00
       -6  1    1    2    0  505 +5.9310205934e+01 -1.4548900166e+02 +4.7129063817e+02 5.2605001260e+02 1.7300000000e+02 0.0000e+00 1.0000e+00
       21  1    1    2  504  503 +3.4333919597e+01 -1.4050276384e+01 +6.3017065055e+00 3.7628975620e+01 0.0000000000e+00 0.0000e+00 -1.0000e+00
       21  1    1    2  505  502 +8.4016048657e+01 +9.4625706245e+01 +2.8947533874e+03 2.8975178851e+03 0.0000000000e+00 0.0000e+00 -1.0000e+00
<mgrwt>
<rscale>  4 0.23022846E+03</rscale>
<asrwt>0</asrwt>
<pdfrwt beam="1">  1       21 0.55250195E+00 0.23022846E+03</pdfrwt>
<pdfrwt beam="2">  1       21 0.21317622E-01 0.23022846E+03</pdfrwt>
<totfact> 0.15017817E+01</totfact>
</mgrwt>
</event>
<event>
 6      1 +2.5196620e+02 1.81672100e+02 7.54677100e-03 1.16726300e-01
       21 -1    0    0  504  502 +0.0000000000e+00 +0.0000000000e+00 +7.6132394577e+02 7.6132394577e+02 0.0000000000e+00 0.0000e+00 -1.0000e+00
       21 -1    0    0  505  503 -0.0000000000e+00 -0.0000000000e+00 -1.3983735037e+02 1.3983735037e+02 0.0000000000e+00 0.0000e+00 -1.0000e+00
        6  1    1    2  501    0 -5.9163990345e+01 -3.5822205474e+00 +5.6356901098e+02 5.9249661619e+02 1.7300000000e+02 0.0000e+00 -1.0000e+00
       -6  1    1    2    0  503 +5.1760003538e+01 -6.5453978413e+01 +7.3326720950e+00 1.9221365544e+02 1.7300000000e+02 0.0000e+00 -1.0000e+00
       21  1    1    2  504  501 +2.5349937924e+01 +4.2219375469e+01 +6.4634778176e+01 8.1257304703e+01 0.0000000000e+00 0.0000e+00 -1.0000e+00
       21  1    1    2  505  502 -1.7945951117e+01 +2.6816823492e+01 -1.4049865852e+01 3.5193719811e+01 0.0000000000e+00 0.0000e+00 -1.0000e+00
<mgrwt>
<rscale>  4 0.18167212E+03</rscale>
<asrwt>0</asrwt>
<pdfrwt beam="1">  1       21 0.11712676E+00 0.18167212E+03</pdfrwt>
<pdfrwt beam="2">  1       21 0.21513439E-01 0.18167212E+03</pdfrwt>
<totfact> 0.11374786E+04</totfact>
</mgrwt>
</event>
<event>
 6      1 +2.5196620e+02 1.83506800e+02 7.54677100e-03 1.16726300e-01
       21 -1    0    0  504  502 +0.0000000000e+00 +0.0000000000e+00 +7.8127504705e+02 7.8127504705e+02 0.0000000000e+00 0.0000e+00 1.0000e+00
       21 -1    0    0  505  503 -0.0000000000e+00 -0.0000000000e+00 -9.3124211434e+01 9.3124211434e+01 0.0000000000e+00 0.0000e+00 1.0000e+00
        6  1    1    2  501    0 -2.1159686678e-01 -5.4383430571e+01 +4.4895284634e+02 4.8419547760e+02 1.7300000000e+02 0.0000e+00 1.0000e+00
       -6  1    1    2    0  503 -9.7543397301e+01 +6.1133321264e+01 +1.5503687571e+02 2.5926324490e+02 1.7300000000e+02 0.0000e+00 1.0000e+00
       21  1    1    2  504  501 +7.2950976378e+01 +4.4423058664e+00 +6.2254107130e+01 9.6006004450e+01 0.0000000000e+00 0.0000e+00 1.0000e+00
       21  1    1    2  505  502 +2.4804017790e+01 -1.1192196559e+01 +2.1907006439e+01 3.4934531534e+01 0.0000000000e+00 0.0000e+00 1.0000e+00
<mgrwt>
<rscale>  4 0.18350683E+03</rscale>
<asrwt>0</asrwt>
<pdfrwt beam="1">  1       21 0.12019616E+00 0.18350683E+03</pdfrwt>
<pdfrwt beam="2">  1       21 0.14326802E-01 0.18350683E+03</pdfrwt>
<totfact> 0.22555839E+04</totfact>
</mgrwt>
</event>
<event>
 6      1 +2.5196620e+02 2.30893100e+02 7.54677100e-03 1.09711200e-01
       21 -1    0    0  505  502 +0.0000000000e+00 +0.0000000000e+00 +8.3303529320e+02 8.3303529320e+02 0.0000000000e+00 0.0000e+00 -1.0000e+00
       21 -1    0    0  504  503 -0.0000000000e+00 -0.0000000000e+00 -2.6222282665e+02 2.6222282665e+02 0.0000000000e+00 0.0000e+00 -1.0000e+00
        6  1    1    2  501    0 +1.4087902966e+02 +2.1223479576e+01 -7.4235776231e+01 2.3608745743e+02 1.7300000000e+02 0.0000e+00 -1.0000e+00
       -6  1    1    2    0  503 -1.6737524524e+02 -3.6990968343e+01 +3.6739910503e+01 2.4629580890e+02 1.7300000000e+02 0.0000e+00 -1.0000e+00
       21  1    1    2  504  502 -9.9737754347e+00 -1.9782215866e+01 +2.4753445775e+02 2.4852388222e+02 0.0000000000e+00 0.0000e+00 -1.0000e+00
       21  1    1    2  505  501 +3.6469991017e+01 +3.5549704633e+01 +3.6077387453e+02 3.6435097130e+02 0.0000000000e+00 0.0000e+00 -1.0000e+00
<mgrwt>
<rscale>  4 0.23089312E+03</rscale>
<asrwt>0</asrwt>
<pdfrwt beam="1">  1       21 0.12815927E+00 0.23089312E+03</pdfrwt>
<pdfrwt beam="2">  1       21 0.40341974E-01 0.23089312E+03</pdfrwt>
<totfact> 0.25685171E+03</totfact>
</mgrwt>
</event>
<event>
 6      1 +2.5196620e+02 2.11837800e+02 7.54677100e-03 1.16268000e-01
       21 -1    0    0  501  502 +0.0000000000e+00 +0.0000000000e+00 +1.5286575694e+02 1.5286575694e+02 0.0000000000e+00 0.0000e+00 1.0000e+00
       21 -1    0    0  505  503 -0.0000000000e+00 -0.0000000000e+00 -2.3184513368e+03 2.3184513368e+03 0.0000000000e+00 0.0000e+00 -1.0000e+00
        6  1    1    2  501    0 +1.2994605865e+02 +1.3677762318e+01 +4.4603938927e+01 2.2134039557e+02 1.7300000000e+02 0.0000e+00 1.0000e+00
       -6  1    1    2    0  503 +2.3260778327e+01 -3.4225070083e+01 -1.4816792057e+03 1.4923185611e+03 1.7300000000e+02 0.0000e+00 -1.0000e+00
       21  1    1    2  504  502 -1.1629360812e+01 -4.5645546280e+01 -1.0908167891e+02 1.1881738341e+02 0.0000000000e+00 0.0000e+00 1.0000e+00
       21  1    1    2  505  504 -1.4157747617e+02 +6.6192854046e+01 -6.1942863420e+02 6.3884075367e+02 0.0000000000e+00 0.0000e+00 1.0000e+00
<mgrwt>
<rscale>  4 0.21183785E+03</rscale>
<asrwt>0</asrwt>
<pdfrwt beam="1">  1       21 0.23517807E-01 0.21183785E+03</pdfrwt>
<pdfrwt beam="2">  1       21 0.35668484E+00 0.21183785E+03</pdfrwt>
<totfact> 0.26361389E+02</totfact>
</mgrwt>
</event>
<event>
 6      1 +2.5196620e+02 2.09037300e+02 7.54677100e-03 9.49153200e-02
       21 -1    0    0  505  502 +0.0000000000e+00 +0.0000000000e+00 +7.1605860925e+02 7.1605860925e+02 0.0000000000e+00 0.0000e+00 1.0000e+00
       21 -1    0    0  501  503 -0.0000000000e+00 -0.0000000000e+00 -5.1886787812e+02 5.1886787812e+02 0.0000000000e+00 0.0000e+00 -1.0000e+00
        6  1    1    2  501    0 -1.1156303058e+02 -6.0627241747e+01 -2.1953154361e+02 3.0699360070e+02 1.7300000000e+02 0.0000e+00 -1.0000e+00
       -6  1    1    2    0  502 +4.2116427869e+01 +1.1557579437e+02 -1.3954423422e+02 2.5403375966e+02 1.7300000000e+02 0.0000e+00 -1.0000e+00
       21  1    1    2  504  503 +3.9528603692e+01 -6.0808308500e+01 -3.5915710184e+01 8.0932682709e+01 0.0000000000e+00 0.0000e+00 1.0000e+00
       21  1    1    2  505  504 +2.9917999014e+01 +5.8597558728e+00 +5.9218221914e+02 5.9296644430e+02 0.0000000000e+00 0.0000e+00 1.0000e+00
<mgrwt>
<rscale>  4 0.20903734E+03</rscale>
<asrwt>0</asrwt>
<pdfrwt beam="1">  1       21 0.11016286E+00 0.20903734E+03</pdfrwt>
<pdfrwt beam="2">  1       21 0.79825827E-01 0.20903734E+03</pdfrwt>
<totfact> 0.88474381E+02</totfact>
</mgrwt>
</event>
<event>
 6      1 +2.5196620e+02 2.40682200e+02 7.54677100e-03 9.49153200e-02
       21 -1    0    0  505  502 +0.0000000000e+00 +0.0000000000e+00 +9.0471664530e+02 9.0471664530e+02 0.0000000000e+00 0.0000e+00 1.0000e+00
       21 -1    0    0  501  503 -0.0000000000e+00 -0.0000000000e+00 -3.3356115326e+02 3.3356115326e+02 0.0000000000e+00 0.0000e+00 1.0000e+00
        6  1    1    2  501    0 -1.2188583098e+02 +1.3384216428e+02 +3.0483091786e+02 3.9448798361e+02 1.7300000000e+02 0.0000e+00 1.0000e+00
       -6  1    1    2    0  502 +8.3973787510e+01 -1.3882054354e+02 +3.1157480313e+02 3.9157451174e+02 1.7300000000e+02 0.0000e+00 1.0000e+00
       21  1    1    2  504  503 -7.0132159811e+00 +6.5734172662e+01 -2.3703562961e+02 2.4608140189e+02 0.0000000000e+00 0.0000e+00 1.0000e+00
       21  1    1    2  505  504 +4.4925259447e+01 -6.0755793405e+01 +1.9178540065e+02 2.0613390132e+02 0.0000000000e+00 0.0000e+00 1.0000e+00
<mgrwt>
<rscale>  4 0.24068219E+03</rscale>
<asrwt>0</asrwt>
<pdfrwt beam="1">  1       21 0.13918718E+00 0.24068219E+03</pdfrwt>
<pdfrwt beam="2">  1       21 0.51317101E-01 0.24068219E+03</pdfrwt>
<totfact> 0.12544818E+03</totfact>
</mgrwt>
</event>
<event>
 6      1 +2.5196620e+02 1.84106400e+02 7.54677100e-03 9.49153200e-02
       21 -1    0    0  505  502 +0.0000000000e+00 +0.0000000000e+00 +5.9473760626e+01 5.9473760626e+01 0.0000000000e+00 0.0000e+00 -1.0000e+00
       21 -1    0    0  501  503 -0.0000000000e+00 -0.0000000000e+00 -1.1945982114e+03 1.1945982114e+03 0.0000000000e+00 0.0000e+00 -1.0000e+00
        6  1    1    2  501    0 -1.5676899437e+01 +5.8769722147e+01 -7.5812479120e+02 7.7998836174e+02 1.7300000000e+02 0.0000e+00 -1.0000e+00
       -6  1    1    2    0  502 -5.0365764881e+01 -4.9497857191e+01 -1.6655172358e+02 2.5031025701e+02 1.7300000000e+02 0.0000e+00 -1.0000e+00
       21  1    1    2  504  503 +1.6770910627e+01 -1.8017718462e+01 -9.0911707647e+01 9.4185137942e+01 0.0000000000e+00 0.0000e+00 -1.0000e+00
       21  1    1    2  505  504 +4.9271753690e+01 +8.7458535054e+00 -1.1953622834e+02 1.2958821532e+02 0.0000000000e+00 0.0000e+00 -1.0000e+00
<mgrwt>
<rscale>  4 0.18410636E+03</rscale>
<asrwt>0</asrwt>
<pdfrwt beam="1">  1       21 0.91498099E-02 0.18410636E+03</pdfrwt>
<pdfrwt beam="2">  1       21 0.18378433E+00 0.18410636E+03</pdfrwt>
<totfact> 0.16384427E+04</totfact>
</mgrwt>
</event>
<event>
 6      1 +2.5196620e+02 1.90442700e+02 7.54677100e-03 9.49153200e-02
       21 -1    0    0  505  502 +0.0000000000e+00 +0.0000000000e+00 +7.4442390617e+02 7.4442390617e+02 0.0000000000e+00 0.0000e+00 1.0000e+00
       21 -1    0    0  504  503 -0.0000000000e+00 -0.0000000000e+00 -3.4672395669e+02 3.4672395669e+02 0.0000000000e+00 0.0000e+00 1.0000e+00
        6  1    1    2  501    0 -1.7443475742e+01 +8.6004275519e+01 -9.3647198269e+01 2.1540614661e+02 1.7300000000e+02 0.0000e+00 1.0000e+00
       -6  1    1    2    0  502 +9.1249294828e+00 -4.2126549659e+01 +5.5796374749e+02 5.8575630943e+02 1.7300000000e+02 0.0000e+00 1.0000e+00
       21  1    1    2  504  501 -2.8408244989e+01 -1.5597718388e+01 -1.7191125771e+02 1.7493941160e+02 0.0000000000e+00 0.0000e+00 1.0000e+00
       21  1    1    2  505  503 +3.6726791247e+01 -2.8280007472e+01 +1.0529465797e+02 1.1504599522e+02 0.0000000000e+00 0.0000e+00 -1.0000e+00
<mgrwt>
<rscale>  4 0.19044267E+03</rscale>
<asrwt>0</asrwt>
<pdfrwt beam="1">  1       21 0.11452675E+00 0.19044267E+03</pdfrwt>
<pdfrwt beam="2">  1       21 0.53342147E-01 0.19044267E+03</pdfrwt>
<totfact> 0.19744933E+03</totfact>
</mgrwt>
</event>
<event>
 6      1 +2.5196620e+02 3.09398100e+02 7.54677100e-03 1.02776600e-01
       21 -1    0    0  501  502 +0.0000000000e+00 +0.0000000000e+00 +5.4378366679e+02 5.4378366679e+02 0.0000000000e+00 0.0000e+00 -1.0000e+00
       21 -1    0    0  505  503 -0.0000000000e+00 -0.0000000000e+00 -3.6483885082e+02 3.6483885082e+02 0.0000000000e+00 0.0000e+00 -1.0000e+00
        6  1    1    2  501    0 +4.7938573697e+01 -2.3036839726e+02 +2.3040821935e+02 3.7200087748e+02 1.7300000000e+02 0.0000e+00 1.0000e+00
       -6  1    1    2    0  503 +7.5824301436e+01 -6.6023292573e+01 +1.8397277286e+01 2.0093745211e+02 1.7300000000e+02 0.0000e+00 -1.0000e+00
       21  1    1    2  504  502 -9.7571616070e+01 +1.4666622539e+02 -4.3017156195e+01 1.8133305727e+02 0.0000000000e+00 0.0000e+00 -1.0000e+00
       21  1    1    2  505  504 -2.6191259064e+01 +1.4972546444e+02 -2.6843524469e+01 1.5435113073e+02 0.0000000000e+00 0.0000e+00 -1.0000e+00
<mgrwt>
<rscale>  4 0.27745750E+03</rscale>
<asrwt>0</asrwt>
<pdfrwt beam="1">  1       21 0.83659025E-01 0.30939810E+03</pdfrwt>
<pdfrwt beam="2">  1       21 0.56129054E-01 0.30939810E+03</pdfrwt>
<totfact> 0.34364987E+03</totfact>
</mgrwt>
</event>
<event>
 6      1 +2.5196620e+02 1.88744500e+02 7.54677100e-03 1.16321900e-01
       21 -1    0    0  504  502 +0.0000000000e+00 +0.0000000000e+00 +3.8634127146e+02 3.8634127146e+02 0.0000000000e+00 0.0000e+00 -1.0000e+00
       21 -1    0    0  505  503 -0.0000000000e+00 -0.0000000000e+00 -4.7891266841e+02 4.7891266841e+02 0.0000000000e+00 0.0000e+00 1.0000e+00
        6  1    1    2  501    0 +6.2723887226e+01 +3.4511575104e+01 -1.2610470177e+02 2.2573597554e+02 1.7300000000e+02 0.0000e+00 1.0000e+00
       -6  1    1    2    0  502 -6.2316795945e+01 -4.3757127017e+01 +2.9069236233e+02 3.4674070822e+02 1.7300000000e+02 0.0000e+00 -1.0000e+00
       21  1    1    2  504  503 -1.5813058065e+01 -5.8307729928e+01 -1.7591589199e+02 1.8600065922e+02 0.0000000000e+00 0.0000e+00 1.0000e+00
       21  1    1    2  505  501 +1.5405966784e+01 +6.7553281841e+01 -8.1243165518e+01 1.0677659689e+02 0.0000000000e+00 0.0000e+00 1.0000e+00
<mgrwt>
<rscale>  4 0.18874447E+03</rscale>
<asrwt>0</asrwt>
<pdfrwt beam="1">  1       21 0.59437119E-01 0.18874447E+03</pdfrwt>
<pdfrwt beam="2">  1       21 0.73678872E-01 0.18874447E+03</pdfrwt>
<totfact> 0.43876427E+03</totfact>
</mgrwt>
</event>
<event>
 6      1 +2.5196620e+02 1.85004800e+02 7.54677100e-03 1.11396600e-01
       21 -1    0    0  504  502 +0.0000000000e+00 +0.0000000000e+00 +1.9934714902e+02 1.9934714902e+02 0.0000000000e+00 0.0000e+00 1.0000e+00
       21 -1    0    0  501  503 -0.0000000000e+00 -0.0000000000e+00 -4.5811341671e+02 4.5811341671e+02 0.0000000000e+00 0.0000e+00 -1.0000e+00
        6  1    1    2  501    0 +5.6214438716e+01 +7.4102541598e+01 -2.4943943920e+02 3.1749060399e+02 1.7300000000e+02 0.0000e+00 -1.0000e+00
       -6  1    1    2    0  502 -4.4890545059e+01 +1.1451189080e+01 -1.0220390835e+02 2.0620603689e+02 1.7300000000e+02 0.0000e+00 -1.0000e+00
       21  1    1    2  504  505 -1.3018239491e+01 -5.0068467325e+01 +8.1366350171e+01 9.6419961211e+01 0.0000000000e+00 0.0000e+00 1.0000e+00
       21  1    1    2  505  503 +1.6943458339e+00 -3.5485263353e+01 +1.1510729682e+01 3.7343963647e+01 0.0000000000e+00 0.0000e+00 1.0000e+00
<mgrwt>
<rscale>  4 0.18500476E+03</rscale>
<asrwt>0</asrwt>
<pdfrwt beam="1">  1       21 0.30668792E-01 0.18500476E+03</pdfrwt>
<pdfrwt beam="2">  1       21 0.70478987E-01 0.18500476E+03</pdfrwt>
<totfact> 0.18717508E+04</totfact>
</mgrwt>
</event>
<event>
 6      1 +2.5196620e+02 3.14567000e+02 7.54677100e-03 1.06301000e-01
       21 -1    0    0  505  502 +0.0000000000e+00 +0.0000000000e+00 +1.3952331875e+03 1.3952331875e+03 0.0000000000e+00 0.0000e+00 -1.0000e+00
       21 -1    0    0  504  503 -0.0000000000e+00 -0.0000000000e+00 -2.2393127397e+02 2.2393127397e+02 0.0000000000e+00 0.0000e+00 1.0000e+00
        6  1    1    2  501    0 -9.8017103860e+01 -7.5150016671e+01 +7.2172211488e+02 7.5237403515e+02 1.7300000000e+02 0.0000e+00 -1.0000e+00
       -6  1    1    2    0  503 +1.1873047904e+02 -1.8893215498e+02 +2.4409833113e+02 3.7323622694e+02 1.7300000000e+02 0.0000e+00 1.0000e+00
       21  1    1    2  504  502 -4.1262727553e+01 +2.8499314660e+02 +2.0002296919e+00 2.8797171252e+02 0.0000000000e+00 0.0000e+00 1.0000e+00
       21  1    1    2  505  501 +2.0549352375e+01 -2.0910974943e+01 +2.0348123781e+02 2.0558248684e+02 0.0000000000e+00 0.0000e+00 -1.0000e+00
<mgrwt>
<rscale>  4 0.28503249E+03</rscale>
<asrwt>0</asrwt>
<pdfrwt beam="1">  1       21 0.21465125E+00 0.31456703E+03</pdfrwt>
<pdfrwt beam="2">  1       21 0.34450966E-01 0.31456703E+03</pdfrwt>
<totfact> 0.78794789E+02</totfact>
</mgrwt>
</event>
<event>
 6      1 +2.5196620e+02 2.51149100e+02 7.54677100e-03 1.06301000e-01
       21 -1    0    0  505  502 +0.0000000000e+00 +0.0000000000e+00 +7.8825031460e+02 7.8825031460e+02 0.0000000000e+00 0.0000e+00 1.0000e+00
       21 -1    0    0  501  503 -0.0000000000e+00 -0.0000000000e+00 -1.2691445299e+02 1.2691445299e+02 0.0000000000e+00 0.0000e+00 -1.0000e+00
        6  1    1    2  501    0 +1.7891139856e+02 +6.7345515087e+00 +3.6342715515e+02 4.4052575386e+02 1.7300000000e+02 0.0000e+00 1.0000e+00
       -6  1    1    2    0  502 -1.7892958658e+02 -1.3455247374e+01 +2.4483668073e+02 3.4938637762e+02 1.7300000000e+02 0.0000e+00 1.0000e+00
       21  1    1    2  504  503 -2.4860128289e+01 -1.9215621746e+01 -2.4444835743e+01 3.9809748707e+01 0.0000000000e+00 0.0000e+00 -1.0000e+00
       21  1    1    2  505  504 +2.4878316315e+01 +2.5936317611e+01 +7.7516861477e+01 8.5442887399e+01 0.0000000000e+00 0.0000e+00 -1.0000e+00
<mgrwt>
<rscale>  4 0.25114913E+03</rscale>
<asrwt>0</asrwt>
<pdfrwt beam="1">  1       21 0.12126928E+00 0.25114913E+03</pdfrwt>
<pdfrwt beam="2">  1       21 0.19525301E-01 0.25114913E+03</pdfrwt>
<totfact> 0.11968812E+04</totfact>
</mgrwt>
</event>
<event>
 6      1 +2.5196620e+02 3.44780100e+02 7.54677100e-03 9.49153200e-02
       21 -1    0    0  505  502 +0.0000000000e+00 +0.0000000000e+00 +7.7014659809e+02 7.7014659809e+02 0.0000000000e+00 0.0000e+00 -1.0000e+00
       21 -1    0    0  504  503 -0.0000000000e+00 -0.0000000000e+00 -3.4081773787e+02 3.4081773787e+02 0.0000000000e+00 0.0000e+00 1.0000e+00
        6  1    1    2  501    0 +4.2229447644e+01 -2.7509091793e+02 +2.6403939597e+00 3.2771071245e+02 1.7300000000e+02 0.0000e+00 1.0000e+00
       -6  1    1    2    0  502 -9.3821951937e+01 +3.0974915509e+02 +1.3226579065e+02 3.9009016537e+02 1.7300000000e+02 0.0000e+00 1.0000e+00
       21  1    1    2  504  501 +3.7981146594e+01 -6.0954680776e+00 -4.1018255297e+01 5.6233615350e+01 0.0000000000e+00 0.0000e+00 1.0000e+00
       21  1    1    2  505  503 +1.3611357698e+01 -2.8562769077e+01 +3.3544093090e+02 3.3692984279e+02 0.0000000000e+00 0.0000e+00 -1.0000e+00
<mgrwt>
<rscale>  4 0.34478014E+03</rscale>
<asrwt>0</asrwt>
<pdfrwt beam="1">  1       21 0.11848409E+00 0.34478014E+03</pdfrwt>
<pdfrwt beam="2">  1       21 0.52433498E-01 0.34478014E+03</pdfrwt>
<totfact> 0.16897654E+03</totfact>
</mgrwt>
</event>
<event>
 6      1 +2.5196620e+02 1.74057200e+02 7.54677100e-03 9.49153200e-02
       21 -1    0    0  505  502 +0.0000000000e+00 +0.0000000000e+00 +1.6218481234e+02 1.6218481234e+02 0.0000000000e+00 0.0000e+00 1.0000e+00
       21 -1    0    0  501  503 -0.0000000000e+00 -0.0000000000e+00 -3.3855515957e+02 3.3855515957e+02 0.0000000000e+00 0.0000e+00 1.0000e+00
        6  1    1    2  501    0 -2.7357626378e+00 -7.0434915577e+01 -7.4365842683e+01 2.0106675580e+02 1.7300000000e+02 0.0000e+00 1.0000e+00
       -6  1    1    2    0  502 -5.3592038645e+00 -2.0577442167e+01 -1.0645920108e+02 2.0424180200e+02 1.7300000000e+02 0.0000e+00 -1.0000e+00
       21  1    1    2  504  503 +7.2269033871e+00 +6.3682297149e+01 -9.4019687915e+00 6.4777003017e+01 0.0000000000e+00 0.0000e+00 1.0000e+00
       21  1    1    2  505  504 +8.6806311521e-01 +2.7330060595e+01 +1.3856665320e+01 3.0654411093e+01 0.0000000000e+00 0.0000e+00 1.0000e+00
<mgrwt>
<rscale>  4 0.17405716E+03</rscale>
<asrwt>0</asrwt>
<pdfrwt beam="1">  1       21 0.24951510E-01 0.17405716E+03</pdfrwt>
<pdfrwt beam="2">  1       21 0.52085409E-01 0.17405716E+03</pdfrwt>
<totfact> 0.53649921E+04</totfact>
</mgrwt>
</event>
<event>
 6      1 +2.5196620e+02 1.92583300e+02 7.54677100e-03 1.06301000e-01
       21 -1    0    0  503  502 +0.0000000000e+00 +0.0000000000e+00 +6.5389316525e+01 6.5389316525e+01 0.0000000000e+00 0.0000e+00 -1.0000e+00
       21 -1    0    0  504  503 -0.0000000000e+00 -0.0000000000e+00 -1.4309217781e+03 1.4309217781e+03 0.0000000000e+00 0.0000e+00 1.0000e+00
        6  1    1    2  501    0 -9.3083735797e+01 -1.7423595879e+01 -7.8934903028e+02 8.1361480762e+02 1.7300000000e+02 0.0000e+00 1.0000e+00
       -6  1    1    2    0  505 +5.9850273927e+01 +3.3454452524e+01 -3.2151243123e+02 3.7148418421e+02 1.7300000000e+02 0.0000e+00 1.0000e+00
       21  1    1    2  504  501 +1.0503580557e+01 -2.6423107588e+01 -2.7654253466e+02 2.7800050233e+02 0.0000000000e+00 0.0000e+00 -1.0000e+00
       21  1    1    2  505  502 +2.2729881313e+01 +1.0392250943e+01 +2.1871534561e+01 3.3211600507e+01 0.0000000000e+00 0.0000e+00 -1.0000e+00
<mgrwt>
<rscale>  4 0.19258328E+03</rscale>
<asrwt>0</asrwt>
<pdfrwt beam="1">  1       21 0.10059895E-01 0.19258328E+03</pdfrwt>
<pdfrwt beam="2">  1       21 0.22014180E+00 0.19258328E+03</pdfrwt>
<totfact> 0.80618117E+03</totfact>
</mgrwt>
</event>
<event>
 6      1 +2.5196620e+02 2.26216700e+02 7.54677100e-03 1.06301000e-01
       21 -1    0    0  501  502 +0.0000000000e+00 +0.0000000000e+00 +8.1493813895e+02 8.1493813895e+02 0.0000000000e+00 0.0000e+00 1.0000e+00
       21 -1    0    0  504  503 -0.0000000000e+00 -0.0000000000e+00 -2.2623117435e+02 2.2623117435e+02 0.0000000000e+00 0.0000e+00 -1.0000e+00
        6  1    1    2  501    0 +1.3580572006e+02 +2.4827096094e+00 +5.6651585395e+02 6.0771586307e+02 1.7300000000e+02 0.0000e+00 1.0000e+00
       -6  1    1    2    0  503 -1.5173166331e+02 -5.9393032616e+01 -6.2849623185e+01 2.4582332092e+02 1.7300000000e+02 0.0000e+00 -1.0000e+00
       21  1    1    2  504  505 +1.2850274655e+01 +1.6436870644e+01 -4.5965977255e+01 5.0479415015e+01 0.0000000000e+00 0.0000e+00 -1.0000e+00
       21  1    1    2  505  502 +3.0756685882e+00 +4.0473452363e+01 +1.3100671109e+02 1.3715071430e+02 0.0000000000e+00 0.0000e+00 1.0000e+00
<mgrwt>
<rscale>  4 0.22621672E+03</rscale>
<asrwt>0</asrwt>
<pdfrwt beam="1">  1       21 0.12537510E+00 0.22621672E+03</pdfrwt>
<pdfrwt beam="2">  1       21 0.34804797E-01 0.22621672E+03</pdfrwt>
<totfact> 0.36664678E+03</totfact>
</mgrwt>
</event>
<event>
 6      1 +2.5196620e+02 1.81541800e+02 7.54677100e-03 1.16321900e-01
       21 -1    0    0  504  502 +0.0000000000e+00 +0.0000000000e+00 +9.7397153087e+02 9.7397153087e+02 0.0000000000e+00 0.0000e+00 1.0000e+00
       21 -1    0    0  501  503 -0.0000000000e+00 -0.0000000000e+00 -1.0666483355e+03 1.0666483355e+03 0.0000000000e+00 0.0000e+00 1.0000e+00
        6  1    1    2  501    0 +6.7696633478e+00 +1.8622634164e+02 -4.1053500316e+02 4.8290171617e+02 1.7300000000e+02 0.0000e+00 1.0000e+00
       -6  1    1    2    0  502 -5.5940855146e+01 +6.7228176462e+00 +8.9806869556e+02 9.1631378768e+02 1.7300000000e+02 0.0000e+00 1.0000e+00
       21  1    1    2  504  505 -1.3801601968e+00 -1.2646955533e+02 -1.2228850298e+02 1.7592876748e+02 0.0000000000e+00 0.0000e+00 -1.0000e+00
       21  1    1    2  505  503 +5.0551351995e+01 -6.6479603951e+01 -4.5792199408e+02 4.6547559505e+02 0.0000000000e+00 0.0000e+00 1.0000e+00
<mgrwt>
<rscale>  4 0.18154184E+03</rscale>
<asrwt>0</asrwt>
<pdfrwt beam="1">  1       21 0.14984177E+00 0.18154184E+03</pdfrwt>
<pdfrwt beam="2">  1       21 0.16409974E+00 0.18154184E+03</pdfrwt>
<totfact> 0.71652027E+01</totfact>
</mgrwt>
</event>
<event>
 6      1 +2.5196620e+02 3.54686100e+02 7.54677100e-03 1.16128000e-01
       21 -1    0    0  501  502 +0.0000000000e+00 +0.0000000000e+00 +1.3133375658e+03 1.3133375658e+03 0.0000000000e+00 0.0000e+00 1.0000e+00
       21 -1    0    0  505  503 -0.0000000000e+00 -0.0000000000e+00 -6.1003820622e+02 6.1003820622e+02 0.0000000000e+00 0.0000e+00 1.0000e+00
        6  1    1    2  501    0 +2.8525102809e+02 +1.2001271672e+02 +1.1577349818e+03 1.2108057191e+03 1.7300000000e+02 0.0000e+00 1.0000e+00
       -6  1    1    2    0  503 -2.3821675063e+02 -2.3683767299e+02 -4.2476943370e+02 5.6850450783e+02 1.7300000000e+02 0.0000e+00 1.0000e+00
       21  1    1    2  504  502 -5.3769494539e+01 +5.6861884709e+01 -3.6158639527e+00 7.8342242422e+01 0.0000000000e+00 0.0000e+00 1.0000e+00
       21  1    1    2  505  504 +6.7352170740e+00 +5.9963071562e+01 -2.6050324619e+01 6.5723302663e+01 0.0000000000e+00 0.0000e+00 1.0000e+00
<mgrwt>
<rscale>  4 0.35468615E+03</rscale>
<asrwt>0</asrwt>
<pdfrwt beam="1">  1       21 0.20205193E+00 0.35468615E+03</pdfrwt>
<pdfrwt beam="2">  1       21 0.93852032E-01 0.35468615E+03</pdfrwt>
<totfact> 0.10512438E+02</totfact>
</mgrwt>
</event>
<event>
 6      1 +2.5196620e+02 1.82327500e+02 7.54677100e-03 1.06301000e-01
       21 -1    0    0  504  502 +0.0000000000e+00 +0.0000000000e+00 +4.8164414201e+02 4.8164414201e+02 0.0000000000e+00 0.0000e+00 1.0000e+00
       21 -1    0    0  501  503 -0.0000000000e+00 -0.0000000000e+00 -1.7118483406e+03 1.7118483406e+03 0.0000000000e+00 0.0000e+00 1.0000e+00
        6  1    1    2  501    0 -7.9928830061e+00 -8.9897356926e+01 -1.2702782423e+02 2.3283146069e+02 1.7300000000e+02 0.0000e+00 1.0000e+00
       -6  1    1    2    0  505 +3.5050834336e+01 +3.7091411560e+01 +8.8604196929e+01 2.0095780033e+02 1.7300000000e+02 0.0000e+00 1.0000e+00
       21  1    1    2  504  503 +7.5544052576e+00 +3.9674188803e+01 -1.4742576199e+03 1.4748107134e+03 0.0000000000e+00 0.0000e+00 1.0000e+00
       21  1    1    2  505  502 -3.4612356588e+01 +1.3131756564e+01 +2.8247704863e+02 2.8489250825e+02 0.0000000000e+00 0.0000e+00 1.0000e+00
<mgrwt>
<rscale>  4 0.18232746E+03</rscale>
<asrwt>0</asrwt>
<pdfrwt beam="1">  1       21 0.74099098E-01 0.18232746E+03</pdfrwt>
<pdfrwt beam="2">  1       21 0.26336128E+00 0.18232746E+03</pdfrwt>
<totfact> 0.92277618E+01</totfact>
</mgrwt>
</event>
<event>
 6      1 +2.5196620e+02 2.14133100e+02 7.54677100e-03 1.14954000e-01
       21 -1    0    0  501  502 +0.0000000000e+00 +0.0000000000e+00 +8.0335908071e+02 8.0335908071e+02 0.0000000000e+00 0.0000e+00 -1.0000e+00
       21 -1    0    0  504  503 -0.0000000000e+00 -0.0000000000e+00 -9.2445990138e+01 9.2445990138e+01 0.0000000000e+00 0.0000e+00 1.0000e+00
        6  1    1    2  501    0 +1.1659614213e+00 +8.5886424255e+01 +1.5932686843e+02 2.5038348257e+02 1.7300000000e+02 0.0000e+00 1.0000e+00
       -6  1    1    2    0  503 +2.1721265637e+01 -1.5888483891e+02 +4.6189322629e+02 5.1864299659e+02 1.7300000000e+02 0.0000e+00 -1.0000e+00
       21  1    1    2  504  505 -3.1125284476e+01 +5.1325843481e+01 +4.0545280800e+01 7.2436491756e+01 0.0000000000e+00 0.0000e+00 1.0000e+00
       21  1    1    2  505  502 +8.2380574167e+00 +2.1672571173e+01 +4.9147715043e+01 5.4342099934e+01 0.0000000000e+00 0.0000e+00 1.0000e+00
<mgrwt>
<rscale>  4 0.21413314E+03</rscale>
<asrwt>0</asrwt>
<pdfrwt beam="1">  1       21 0.12359370E+00 0.21413314E+03</pdfrwt>
<pdfrwt beam="2">  1       21 0.14222461E-01 0.21413314E+03</pdfrwt>
<totfact> 0.20921936E+04</totfact>
</mgrwt>
</event>
<event>
 6      1 +2.5196620e+02 1.78201000e+02 7.54677100e-03 1.16726300e-01
       21 -1    0    0  504  502 +0.0000000000e+00 +0.0000000000e+00 +3.7662562748e+02 3.7662562748e+02 0.0000000000e+00 0.0000e+00 1.0000e+00
       21 -1    0    0  505  503 -0.0000000000e+00 -0.0000000000e+00 -2.7446168348e+02 2.7446168348e+02 0.0000000000e+00 0.0000e+00 1.0000e+00
        6  1    1    2  501    0 -4.5866198127e+00 -5.7913801965e+01 +2.0316446719e+02 2.7309310915e+02 1.7300000000e+02 0.0000e+00 1.0000e+00
       -6  1    1    2    0  503 -6.8851278089e+00 +4.8561958184e+01 -7.8837001802e+01 1.9634139049e+02 1.7300000000e+02 0.0000e+00 -1.0000e+00
       21  1    1    2  504  501 -2.7084567366e+01 +2.9484185067e+01 +6.9492143731e+01 8.0200056102e+01 0.0000000000e+00 0.0000e+00 1.0000e+00
       21  1    1    2  505  502 +3.8556314988e+01 -2.0132341286e+01 -9.1655665117e+01 1.0145275521e+02 0.0000000000e+00 0.0000e+00 1.0000e+00
<mgrwt>
<rscale>  4 0.17820098E+03</rscale>
<asrwt>0</asrwt>
<pdfrwt beam="1">  1       21 0.57942404E-01 0.17820098E+03</pdfrwt>
<pdfrwt beam="2">  1       21 0.42224875E-01 0.17820098E+03</pdfrwt>
<totfact> 0.15209790E+04</totfact>
</mgrwt>
</event>
<event>
 6      1 +2.5196620e+02 2.81592000e+02 7.54677100e-03 1.09079000e-01
       21 -1    0    0  505  502 +0.0000000000e+00 +0.0000000000e+00 +8.8310485810e+02 8.8310485810e+02 0.0000000000e+00 0.0000e+00 -1.0000e+00
       21 -1    0    0  501  503 -0.0000000000e+00 -0.0000000000e+00 -7.7881176122e+02 7.7881176122e+02 0.0000000000e+00 0.0000e+00 -1.0000e+00
        6  1    1    2  501    0 +1.2169697481e+02 +1.9837022449e+02 -6.8379822912e+02 7.4274485376e+02 1.7300000000e+02 0.0000e+00 -1.0000e+00
       -6  1    1    2    0  504 +4.0330371132e+01 -9.1867791559e+00 +2.4990093000e+02 3.0674160227e+02 1.7300000000e+02 0.0000e+00 -1.0000e+00
       21  1    1    2  504  502 -1.2891910070e+02 -9.2279666913e+01 +1.7989043787e+02 2.3978373816e+02 0.0000000000e+00 0.0000e+00 -1.0000e+00
       21  1    1    2  505  503 -3.3108245242e+01 -9.6903778423e+01 +3.5829995812e+02 3.7264642514e+02 0.0000000000e+00 0.0000e+00 -1.0000e+00
<mgrwt>
<rscale>  4 0.25348804E+03</rscale>
<asrwt>0</asrwt>
<pdfrwt beam="1">  1       21 0.13586229E+00 0.28159204E+03</pdfrwt>
<pdfrwt beam="2">  1       21 0.11981719E+00 0.28159204E+03</pdfrwt>
<totfact> 0.18648421E+02</totfact>
</mgrwt>
</event>
<event>
 6      1 +2.5196620e+02 2.07923900e+02 7.54677100e-03 1.06301000e-01
       21 -1    0    0  505  502 +0.0000000000e+00 +0.0000000000e+00 +1.5283711059e+03 1.5283711059e+03 0.0000000000e+00 0.0000e+00 -1.0000e+00
       21 -1    0    0  501  503 -0.0000000000e+00 -0.0000000000e+00 -5.4343386274e+01 5.4343386274e+01 0.0000000000e+00 0.0000e+00 -1.0000e+00
        6  1    1    2  501    0 +8.9653481089e+01 -2.2344773114e+00 +7.7993913370e+02 8.0391342309e+02 1.7300000000e+02 0.0000e+00 1.0000e+00
       -6  1    1    2    0  502 -1.0893409926e+02 -4.4611327252e+01 +2.7475537909e+02 3.4536404972e+02 1.7300000000e+02 0.0000e+00 -1.0000e+00
       21  1    1    2  504  503 -2.0122212740e+01 +4.9103686890e-01 +1.6475313749e+01 2.6011161564e+01 0.0000000000e+00 0.0000e+00 1.0000e+00
       21  1    1    2  505  504 +3.9402830916e+01 +4.6354767694e+01 +4.0285789305e+02 4.0742585775e+02 0.0000000000e+00 0.0000e+00 -1.0000e+00
<mgrwt>
<rscale>  4 0.20792390E+03</rscale>
<asrwt>0</asrwt>
<pdfrwt beam="1">  1       21 0.23513398E+00 0.20792390E+03</pdfrwt>
<pdfrwt beam="2">  1       21 0.83605221E-02 0.20792390E+03</pdfrwt>
<totfact> 0.89265844E+03</totfact>
</mgrwt>
</event>
<event>
 6      1 +2.5196620e+02 1.80443700e+02 7.54677100e-03 1.15334700e-01
       21 -1    0    0  501  502 +0.0000000000e+00 +0.0000000000e+00 +3.4790924356e+02 3.4790924356e+02 0.0000000000e+00 0.0000e+00 1.0000e+00
       21 -1    0    0  505  503 -0.0000000000e+00 -0.0000000000e+00 -2.1482658947e+02 2.1482658947e+02 0.0000000000e+00 0.0000e+00 1.0000e+00
        6  1    1    2  501    0 +6.0551629373e+01 -1.8690886594e+01 +2.0816080834e+02 2.7798519959e+02 1.7300000000e+02 0.0000e+00 1.0000e+00
       -6  1    1    2    0  504 -2.2170893818e+01 -4.5013004883e+01 -3.3400155324e+01 1.8320013514e+02 1.7300000000e+02 0.0000e+00 1.0000e+00
       21  1    1    2  504  503 -7.7963714123e+00 +4.9936869195e+01 -3.3984722081e+00 5.0655936726e+01 0.0000000000e+00 0.0000e+00 -1.0000e+00
       21  1    1    2  505  502 -3.0584364143e+01 +1.3767022282e+01 -3.8279526713e+01 5.0894561575e+01 0.0000000000e+00 0.0000e+00 1.0000e+00
<mgrwt>
<rscale>  4 0.18044374E+03</rscale>
<asrwt>0</asrwt>
<pdfrwt beam="1">  1       21 0.53524499E-01 0.18044374E+03</pdfrwt>
<pdfrwt beam="2">  1       21 0.33050244E-01 0.18044374E+03</pdfrwt>
<totfact> 0.29311372E+04</totfact>
</mgrwt>
</event>
<event>
 6      1 +2.5196620e+02 1.75390700e+02 7.54677100e-03 1.09711200e-01
       21 -1    0    0  501  502 +0.0000000000e+00 +0.0000000000e+00 +1.1081333129e+02 1.1081333129e+02 0.0000000000e+00 0.0000e+00 1.0000e+00
       21 -1    0    0  505  503 -0.0000000000e+00 -0.0000000000e+00 -5.2164792278e+02 5.2164792278e+02 0.0000000000e+00 0.0000e+00 1.0000e+00
        6  1    1    2  501    0 -4.9798657520e+00 -3.6859930442e+00 -5.5481564760e+01 1.8178445928e+02 1.7300000000e+02 0.0000e+00 1.0000e+00
       -6  1    1    2    0  503 +3.5319725884e+01 -1.3222473884e+01 -3.3356294785e+02 3.7764474977e+02 1.7300000000e+02 0.0000e+00 1.0000e+00
       21  1    1    2  504  502 -2.9069624210e+01 +3.7943435838e+01 -9.8231710754e+00 4.8797971934e+01 0.0000000000e+00 0.0000e+00 1.0000e+00
       21  1    1    2  505  504 -1.2702359224e+00 -2.1034968910e+01 -1.1966907808e+01 2.4234073096e+01 0.0000000000e+00 0.0000e+00 1.0000e+00
<mgrwt>
<rscale>  4 0.17539070E+03</rscale>
<asrwt>0</asrwt>
<pdfrwt beam="1">  1       21 0.17048205E-01 0.17539070E+03</pdfrwt>
<pdfrwt beam="2">  1       21 0.80253526E-01 0.17539070E+03</pdfrwt>
<totfact> 0.42754230E+04</totfact>
</mgrwt>
</event>
<event>
 6      1 +2.5196620e+02 1.93516000e+02 7.54677100e-03 9.49153200e-02
       21 -1    0    0  505  502 +0.0000000000e+00 +0.0000000000e+00 +1.6669254673e+03 1.6669254673e+03 0.0000000000e+00 0.0000e+00 -1.0000e+00
       21 -1    0    0  504  503 -0.0000000000e+00 -0.0000000000e+00 -6.5936592653e+01 6.5936592653e+01 0.0000000000e+00 0.0000e+00 -1.0000e+00
        6  1    1    2  501    0 +6.6503949015e+01 -8.8290561013e+01 +1.1883449728e+03 1.2059480804e+03 1.7300000000e+02 0.0000e+00 -1.0000e+00
       -6  1    1    2    0  502 -3.3694578667e+01 +5.2840559821e+01 +3.3683359694e+02 3.8381417564e+02 1.7300000000e+02 0.0000e+00 -1.0000e+00
       21  1    1    2  504  501 -2.9000181149e+01 +1.1080963280e+01 -2.4659284702e+01 3.9646923915e+01 0.0000000000e+00 0.0000e+00 -1.0000e+00
       21  1    1    2  505  503 -3.8091891984e+00 +2.4369037912e+01 +1.0046958968e+02 1.0345288000e+02 0.0000000000e+00 0.0000e+00 -1.0000e+00
<mgrwt>
<rscale>  4 0.19351596E+03</rscale>
<asrwt>0</asrwt>
<pdfrwt beam="1">  1       21 0.25645004E+00 0.19351596E+03</pdfrwt>
<pdfrwt beam="2">  1       21 0.10144092E-01 0.19351596E+03</pdfrwt>
<totfact> 0.48177328E+03</totfact>
</mgrwt>
</event>
<event>
 6      1 +2.5196620e+02 1.95265900e+02 7.54677100e-03 1.11396600e-01
       21 -1    0    0  505  502 +0.0000000000e+00 +0.0000000000e+00 +1.1517376131e+03 1.1517376131e+03 0.0000000000e+00 0.0000e+00 -1.0000e+00
       21 -1    0    0  502  503 -0.0000000000e+00 -0.0000000000e+00 -1.4543144021e+02 1.4543144021e+02 0.0000000000e+00 0.0000e+00 -1.0000e+00
        6  1    1    2  501    0 +7.1148011537e+01 -5.1286260736e+00 +3.3970577010e+02 3.8783676024e+02 1.7300000000e+02 0.0000e+00 1.0000e+00
       -6  1    1    2    0  503 -8.2451258281e+01 -5.2310512346e+01 -3.7805711515e+01 2.0221985935e+02 1.7300000000e+02 0.0000e+00 -1.0000e+00
       21  1    1    2  504  501 +8.8571248318e+00 +2.5183976953e+01 +4.2551755105e+02 4.2635415749e+02 0.0000000000e+00 0.0000e+00 -1.0000e+00
       21  1    1    2  505  504 +2.4461219123e+00 +3.2255161466e+01 +2.7888856323e+02 2.8075827620e+02 0.0000000000e+00 0.0000e+00 -1.0000e+00
<mgrwt>
<rscale>  4 0.19526588E+03</rscale>
<asrwt>0</asrwt>
<pdfrwt beam="1">  1       21 0.17719040E+00 0.19526588E+03</pdfrwt>
<pdfrwt beam="2">  1       21 0.22374068E-01 0.19526588E+03</pdfrwt>
<totfact> 0.35478054E+03</totfact>
</mgrwt>
</event>
<event>
 6      1 +2.5196620e+02 8.30782200e+02 7.54677100e-03 1.11396600e-01
       21 -1    0    0  504  502 +0.0000000000e+00 +0.0000000000e+00 +2.8086476776e+03 2.8086476776e+03 0.0000000000e+00 0.0000e+00 1.0000e+00
       21 -1    0    0  502  503 -0.0000000000e+00 -0.0000000000e+00 -3.2994199757e+02 3.2994199757e+02 0.0000000000e+00 0.0000e+00 -1.0000e+00
        6  1    1    2  501    0 -4.1554679380e+02 -1.4917393585e+01 +1.0675309563e+02 4.6284650793e+02 1.7300000000e+02 0.0000e+00 -1.0000e+00
       -6  1    1    2    0  503 -3.0498917700e+02 -6.3054534929e+01 +2.8214290315e+02 4.5445339724e+02 1.7300000000e+02 0.0000e+00 -1.0000e+00
       21  1    1    2  504  505 +6.5471952991e+02 +2.6223992722e+01 +1.9617825827e+03 2.0683172538e+03 0.0000000000e+00 0.0000e+00 1.0000e+00
       21  1    1    2  505  501 +6.5816440899e+01 +5.1747935791e+01 +1.2802709860e+02 1.5297251625e+02 0.0000000000e+00 0.0000e+00 -1.0000e+00
<mgrwt>
<rscale>  4 0.83078217E+03</rscale>
<asrwt>0</asrwt>
<pdfrwt beam="1">  1       21 0.43209963E+00 0.83078217E+03</pdfrwt>
<pdfrwt beam="2">  1       21 0.50760309E-01 0.83078217E+03</pdfrwt>
<totfact> 0.11755755E+01</totfact>
</mgrwt>
</event>
<event>
 6      1 +2.5196620e+02 5.28787900e+02 7.54677100e-03 1.09711200e-01
       21 -1    0    0  504  502 +0.0000000000e+00 +0.0000000000e+00 +1.0279027760e+03 1.0279027760e+03 0.0000000000e+00 0.0000e+00 1.0000e+00
       21 -1    0    0  505  503 -0.0000000000e+00 -0.0000000000e+00 -6.9569363430e+02 6.9569363430e+02 0.0000000000e+00 0.0000e+00 -1.0000e+00
        6  1    1    2  501    0 -6.9932965985e+01 -5.0562066966e+02 -1.6619069959e+02 5.6399577122e+02 1.7300000000e+02 0.0000e+00 -1.0000e+00
       -6  1    1    2    0  503 +2.7655670046e+02 +4.3176913618e+02 -6.0912855320e+01 5.4456181602e+02 1.7300000000e+02 0.0000e+00 1.0000e+00
       21  1    1    2  504  501 -1.0870845033e+01 +5.1115429783e+01 +1.8210230030e+02 1.8945239563e+02 0.0000000000e+00 0.0000e+00 -1.0000e+00
       21  1    1    2  505  502 -1.9575288944e+02 +2.2736103695e+01 +3.7721039633e+02 4.2558642745e+02 0.0000000000e+00 0.0000e+00 1.0000e+00
<mgrwt>
<rscale>  4 0.52878793E+03</rscale>
<asrwt>0</asrwt>
<pdfrwt beam="1">  1       21 0.15813889E+00 0.52878793E+03</pdfrwt>
<pdfrwt beam="2">  1       21 0.10702979E+00 0.52878793E+03</pdfrwt>
<totfact> 0.14111899E+02</totfact>
</mgrwt>
</event>
<event>
 6      1 +2.5196620e+02 2.31124100e+02 7.54677100e-03 9.49153200e-02
       21 -1    0    0  505  502 +0.0000000000e+00 +0.0000000000e+00 +1.0958382565e+02 1.0958382565e+02 0.0000000000e+00 0.0000e+00 1.0000e+00
       21 -1    0    0  501  503 -0.0000000000e+00 -0.0000000000e+00 -1.2296664671e+03 1.2296664671e+03 0.0000000000e+00 0.0000e+00 1.0000e+00
        6  1    1    2  501    0 +1.4889140289e+01 +1.8374433815e+02 -3.1824707269e+02 4.0644048467e+02 1.7300000000e+02 0.0000e+00 1.0000e+00
       -6  1    1    2    0  502 +6.4796396162e+00 -1.2172242804e+02 -3.4653973334e+02 4.0605063970e+02 1.7300000000e+02 0.0000e+00 1.0000e+00
       21  1    1    2  504  503 +1.5538860967e+01 -5.8877667904e+01 -4.7895257496e+02 4.8280804161e+02 0.0000000000e+00 0.0000e+00 -1.0000e+00
       21  1    1    2  505  504 -3.6907640872e+01 -3.1442422035e+00 +2.3656739576e+01 4.3951126734e+01 0.0000000000e+00 0.0000e+00 1.0000e+00
<mgrwt>
<rscale>  4 0.23112414E+03</rscale>
<asrwt>0</asrwt>
<pdfrwt beam="1">  1       21 0.16859049E-01 0.23112414E+03</pdfrwt>
<pdfrwt beam="2">  1       21 0.18917946E+00 0.23112414E+03</pdfrwt>
<totfact> 0.48412968E+03</totfact>
</mgrwt>
</event>
<event>
 6      1 +2.5196620e+02 6.75059500e+02 7.54677100e-03 1.16558800e-01
       21 -1    0    0  503  502 +0.0000000000e+00 +0.0000000000e+00 +5.7895192853e+02 5.7895192853e+02 0.0000000000e+00 0.0000e+00 1.0000e+00
       21 -1    0    0  504  503 -0.0000000000e+00 -0.0000000000e+00 -1.5781878915e+03 1.5781878915e+03 0.0000000000e+00 0.0000e+00 -1.0000e+00
        6  1    1    2  501    0 +6.6357747525e+02 +1.1814991720e+02 -7.9764360520e+02 1.0585172599e+03 1.7300000000e+02 0.0000e+00 -1.0000e+00
       -6  1    1    2    0  505 -6.2436315715e+02 -3.5304401830e+01 -4.0029233024e+02 7.6239012483e+02 1.7300000000e+02 0.0000e+00 1.0000e+00
       21  1    1    2  504  501 -6.3466695981e+00 -1.1679872972e+02 -1.4492546271e+01 1.1786542061e+02 0.0000000000e+00 0.0000e+00 1.0000e+00
       21  1    1    2  505  502 -3.2867648503e+01 +3.3953214342e+01 +2.1319251871e+02 2.1836701472e+02 0.0000000000e+00 0.0000e+00 -1.0000e+00
<mgrwt>
<rscale>  4 0.67505952E+03</rscale>
<asrwt>0</asrwt>
<pdfrwt beam="1">  1       21 0.89069527E-01 0.67505952E+03</pdfrwt>
<pdfrwt beam="2">  1       21 0.24279814E+00 0.67505952E+03</pdfrwt>
<totfact> 0.54893913E+01</totfact>
</mgrwt>
</event>
<event>
 6      1 +2.5196620e+02 2.33268600e+02 7.54677100e-03 1.06301000e-01
       21 -1    0    0  501  502 +0.0000000000e+00 +0.0000000000e+00 +4.8140752552e+02 4.8140752552e+02 0.0000000000e+00 0.0000e+00 -1.0000e+00
       21 -1    0    0  504  503 -0.0000000000e+00 -0.0000000000e+00 -3.7630141729e+02 3.7630141729e+02 0.0000000000e+00 0.0000e+00 -1.0000e+00
        6  1    1    2  501    0 -1.6230404079e+02 +5.7242102711e+01 +3.8005542836e+02 4.5165295151e+02 1.7300000000e+02 0.0000e+00 -1.0000e+00
       -6  1    1    2    0  503 +1.2200428356e+02 -6.5753565506e+01 -2.5625500370e+02 3.3882768999e+02 1.7300000000e+02 0.0000e+00 -1.0000e+00
       21  1    1    2  504  505 +2.0076911553e+01 -1.7916614446e+00 -3.4230239333e+01 3.9724069693e+01 0.0000000000e+00 0.0000e+00 1.0000e+00
       21  1    1    2  505  502 +2.0222845673e+01 +1.0303124240e+01 +1.5535922910e+01 2.7504231618e+01 0.0000000000e+00 0.0000e+00 -1.0000e+00
<mgrwt>
<rscale>  4 0.23326860E+03</rscale>
<asrwt>0</asrwt>
<pdfrwt beam="1">  1       21 0.74062696E-01 0.23326860E+03</pdfrwt>
<pdfrwt beam="2">  1       21 0.57892526E-01 0.23326860E+03</pdfrwt>
<totfact> 0.44375301E+03</totfact>
</mgrwt>
</event>
<event>
 6      1 +2.5196620e+02 1.93447100e+02 7.54677100e-03 1.16558800e-01
       21 -1    0    0  505  502 +0.0000000000e+00 +0.0000000000e+00 +4.1660438719e+01 4.1660438719e+01 0.0000000000e+00 0.0000e+00 1.0000e+00
       21 -1    0    0  504  503 -0.0000000000e+00 -0.0000000000e+00 -1.3003523145e+03 1.3003523145e+03 0.0000000000e+00 0.0000e+00 -1.0000e+00
        6  1    1    2  501    0 +9.0337950690e+01 +3.6371675972e+01 -4.8246204187e+02 5.2171109437e+02 1.7300000000e+02 0.0000e+00 1.0000e+00
       -6  1    1    2    0  502 -7.8943242816e+01 +9.3240973278e+00 -6.0507943146e+02 6.3432569927e+02 1.7300000000e+02 0.0000e+00 -1.0000e+00
       21  1    1    2  504  501 +4.4457626172e+00 -3.1850117308e+01 -3.2438617690e+01 4.5677770254e+01 0.0000000000e+00 0.0000e+00 1.0000e+00
       21  1    1    2  505  503 -1.5840470491e+01 -1.3845655992e+01 -1.3871178475e+02 1.4029818931e+02 0.0000000000e+00 0.0000e+00 -1.0000e+00
<mgrwt>
<rscale>  4 0.19344710E+03</rscale>
<asrwt>0</asrwt>
<pdfrwt beam="1">  1       21 0.64092983E-02 0.19344710E+03</pdfrwt>
<pdfrwt beam="2">  1       21 0.20005420E+00 0.19344710E+03</pdfrwt>
<totfact> 0.23609583E+04</totfact>
</mgrwt>
</event>
<event>
 6      1 +2.5196620e+02 2.50163700e+02 7.54677100e-03 1.16128000e-01
       21 -1    0    0  501  502 +0.0000000000e+00 +0.0000000000e+00 +7.1107022232e+02 7.1107022232e+02 0.0000000000e+00 0.0000e+00 -1.0000e+00
       21 -1    0    0  505  503 -0.0000000000e+00 -0.0000000000e+00 -1.8082756597e+02 1.8082756597e+02 0.0000000000e+00 0.0000e+00 1.0000e+00
        6  1    1    2  501    0 +2.0384847207e+02 +7.9060578782e+01 +2.8545657015e+02 3.9902284161e+02 1.7300000000e+02 0.0000e+00 -1.0000e+00
       -6  1    1    2    0  503 -1.5985956303e+02 +5.9043960162e+00 +2.9924354688e+02 3.8087483789e+02 1.7300000000e+02 0.0000e+00 1.0000e+00
       21  1    1    2  504  502 -1.8493635009e+01 -4.5458083420e+01 -3.8402815734e+01 6.2315552957e+01 0.0000000000e+00 0.0000e+00 1.0000e+00
       21  1    1    2  505  504 -2.5495274032e+01 -3.9506891378e+01 -1.6054644950e+01 4.9684555838e+01 0.0000000000e+00 0.0000e+00 1.0000e+00
<mgrwt>
<rscale>  4 0.25016371E+03</rscale>
<asrwt>0</asrwt>
<pdfrwt beam="1">  1       21 0.10939542E+00 0.25016371E+03</pdfrwt>
<pdfrwt beam="2">  1       21 0.27819626E-01 0.25016371E+03</pdfrwt>
<totfact> 0.78566175E+03</totfact>
</mgrwt>
</event>
<event>
 6      1 +2.5196620e+02 2.58661300e+02 7.54677100e-03 9.49153200e-02
       21 -1    0    0  504  502 +0.0000000000e+00 +0.0000000000e+00 +2.8470944702e+02 2.8470944702e+02 0.0000000000e+00 0.0000e+00 1.0000e+00
       21 -1    0    0  501  503 -0.0000000000e+00 -0.0000000000e+00 -5.0838115895e+02 5.0838115895e+02 0.0000000000e+00 0.0000e+00 1.0000e+00
        6  1    1    2  501    0 +1.2688803213e+02 +1.4526520916e+02 -1.2347580325e+02 2.8701537882e+02 1.7300000000e+02 0.0000e+00 1.0000e+00
       -6  1    1    2    0  505 +3.2832731573e+01 -4.7887574137e+01 -4.9161735606e+01 1.8898964063e+02 1.7300000000e+02 0.0000e+00 1.0000e+00
       21  1    1    2  504  503 +1.6612455336e+01 -1.1542002625e+01 -1.1035611324e+02 1.1219475579e+02 0.0000000000e+00 0.0000e+00 1.0000e+00
       21  1    1    2  505  502 -1.7633321904e+02 -8.5835632402e+01 +5.9321940164e+01 2.0489083072e+02 0.0000000000e+00 0.0000e+00 1.0000e+00
<mgrwt>
<rscale>  4 0.23767109E+03</rscale>
<asrwt>0</asrwt>
<pdfrwt beam="1">  1       21 0.43801453E-01 0.25866127E+03</pdfrwt>
<pdfrwt beam="2">  1       21 0.78212486E-01 0.25866127E+03</pdfrwt>
<totfact> 0.69416911E+03</totfact>
</mgrwt>
</event>
<event>
 6      1 +2.5196620e+02 2.85730600e+02 7.54677100e-03 1.14954000e-01
       21 -1    0    0  501  502 +0.0000000000e+00 +0.0000000000e+00 +4.1783653165e+02 4.1783653165e+02 0.0000000000e+00 0.0000e+00 -1.0000e+00
       21 -1    0    0  504  503 -0.0000000000e+00 -0.0000000000e+00 -6.5898277197e+02 6.5898277197e+02 0.0000000000e+00 0.0000e+00 -1.0000e+00
        6  1    1    2  501    0 +1.6054066525e+02 +2.8454535026e+01 +1.3894026247e+02 2.7534771162e+02 1.7300000000e+02 0.0000e+00 -1.0000e+00
       -6  1    1    2    0  503 -2.3110576584e+02 +7.4415188908e+01 -5.2738079829e+02 6.0581102808e+02 1.7300000000e+02 0.0000e+00 -1.0000e+00
       21  1    1    2  504  505 +4.6396178502e+01 -8.8662686350e+01 +1.0624241190e+02 1.4594905761e+02 0.0000000000e+00 0.0000e+00 -1.0000e+00
       21  1    1    2  505  502 +2.4168922087e+01 -1.4207037584e+01 +4.1051883595e+01 4.9711506298e+01 0.0000000000e+00 0.0000e+00 -1.0000e+00
<mgrwt>
<rscale>  4 0.28573060E+03</rscale>
<asrwt>0</asrwt>
<pdfrwt beam="1">  1       21 0.64282544E-01 0.28573060E+03</pdfrwt>
<pdfrwt beam="2">  1       21 0.10138196E+00 0.28573060E+03</pdfrwt>
<totfact> 0.16501500E+03</totfact>
</mgrwt>
</event>
<event>
 6      1 +2.5196620e+02 2.04313700e+02 7.54677100e-03 1.16128000e-01
       21 -1    0    0  501  502 +0.0000000000e+00 +0.0000000000e+00 +7.4823142551e+02 7.4823142551e+02 0.0000000000e+00 0.0000e+00 1.0000e+00
       21 -1    0    0  502  503 -0.0000000000e+00 -0.0000000000e+00 -5.9364144200e+02 5.9364144200e+02 0.0000000000e+00 0.0000e+00 1.0000e+00
        6  1    1    2  501    0 -8.7652377330e+01 -5.3742855473e+01 +6.3957266579e+02 6.7048745596e+02 1.7300000000e+02 0.0000e+00 1.0000e+00
       -6  1    1    2    0  504 +1.8491401681e+02 +4.4924128901e+01 -1.0792763458e+02 2.7890633782e+02 1.7300000000e+02 0.0000e+00 1.0000e+00
       21  1    1    2  504  505 -2.4816318401e+01 +4.9630892206e+00 -3.7369162895e+01 4.5132430126e+01 0.0000000000e+00 0.0000e+00 1.0000e+00
       21  1    1    2  505  503 -7.2445321081e+01 +3.8556373520e+00 -3.3968588481e+02 3.4734664361e+02 0.0000000000e+00 0.0000e+00 1.0000e+00
<mgrwt>
<rscale>  4 0.20431375E+03</rscale>
<asrwt>0</asrwt>
<pdfrwt beam="1">  1       21 0.11511253E+00 0.20431375E+03</pdfrwt>
<pdfrwt beam="2">  1       21 0.91329453E-01 0.20431375E+03</pdfrwt>
<totfact> 0.58651013E+02</totfact>
</mgrwt>
</event>
<event>
 6      1 +2.5196620e+02 2.09978300e+02 7.54677100e-03 1.13287100e-01
       21 -1    0    0  505  502 +0.0000000000e+00 +0.0000000000e+00 +3.4952831657e+02 3.4952831657e+02 0.0000000000e+00 0.0000e+00 -1.0000e+00
       21 -1    0    0  502  503 -0.0000000000e+00 -0.0000000000e+00 -8.4881340988e+02 8.4881340988e+02 0.0000000000e+00 0.0000e+00 -1.0000e+00
        6  1    1    2  501    0 -4.5566467676e+01 -8.8118212931e+01 +7.3174067195e+01 2.1242543759e+02 1.7300000000e+02 0.0000e+00 -1.0000e+00
       -6  1    1    2    0  503 +1.4029428232e+02 +2.2162903040e+01 -3.1459328597e+02 3.8609793512e+02 1.7300000000e+02 0.0000e+00 -1.0000e+00
       21  1    1    2  504  501 -1.5253684523e+02 +1.4427557962e+02 -3.8569767038e+02 4.3914191894e+02 0.0000000000e+00 0.0000e+00 -1.0000e+00
       21  1    1    2  505  504 +5.7809030586e+01 -7.8320269731e+01 +1.2783179585e+02 1.6067643480e+02 0.0000000000e+00 0.0000e+00 -1.0000e+00
<mgrwt>
<rscale>  4 0.20997831E+03</rscale>
<asrwt>0</asrwt>
<pdfrwt beam="1">  1       21 0.53773587E-01 0.20997831E+03</pdfrwt>
<pdfrwt beam="2">  1       21 0.13058668E+00 0.20997831E+03</pdfrwt>
<totfact> 0.13749499E+03</totfact>
</mgrwt>
</event>
<event>
 6      1 +2.5196620e+02 1.73094300e+02 7.54677100e-03 9.49153200e-02
       21 -1    0    0  505  502 +0.0000000000e+00 +0.0000000000e+00 +1.2245937632e+03 1.2245937632e+03 0.0000000000e+00 0.0000e+00 1.0000e+00
       21 -1    0    0  501  503 -0.0000000000e+00 -0.0000000000e+00 -4.9282005770e+01 4.9282005770e+01 0.0000000000e+00 0.0000e+00 1.0000e+00
        6  1    1    2  501    0 +5.6403870727e+01 +9.9539200699e+00 +6.9280419409e+02 7.1637080378e+02 1.7300000000e+02 0.0000e+00 1.0000e+00
       -6  1    1    2    0  502 +2.8304442427e+01 +2.3289812448e+00 +2.2768539154e+02 2.8736075434e+02 1.7300000000e+02 0.0000e+00 1.0000e+00
       21  1    1    2  504  503 -3.3352810899e+01 -1.2874667470e+01 +7.4228407013e+01 8.2389462100e+01 0.0000000000e+00 0.0000e+00 1.0000e+00
       21  1    1    2  505  504 -5.1355502255e+01 +5.9176615555e-01 +1.8059376482e+02 1.8775474879e+02 0.0000000000e+00 0.0000e+00 1.0000e+00
<mgrwt>
<rscale>  4 0.17309427E+03</rscale>
<asrwt>0</asrwt>
<pdfrwt beam="1">  1       21 0.18839902E+00 0.17309427E+03</pdfrwt>
<pdfrwt beam="2">  1       21 0.75818480E-02 0.17309427E+03</pdfrwt>
<totfact> 0.21364756E+04</totfact>
</mgrwt>
</event>
<event>
 6      1 +2.5196620e+02 2.03990600e+02 7.54677100e-03 1.16128000e-01
       21 -1    0    0  501  502 +0.0000000000e+00 +0.0000000000e+00 +1.3034061452e+03 1.3034061452e+03 0.0000000000e+00 0.0000e+00 1.0000e+00
       21 -1    0    0  502  503 -0.0000000000e+00 -0.0000000000e+00 -9.4547463883e+01 9.4547463883e+01 0.0000000000e+00 0.0000e+00 -1.0000e+00
        6  1    1    2  501    0 +4.5059606181e+01 -9.3291514370e+01 +7.7326607917e+02 7.9912646305e+02 1.7300000000e+02 0.0000e+00 1.0000e+00
       -6  1    1    2    0  504 -9.6076421718e+01 +7.6900050843e+01 +4.8162007258e+02 5.2633752568e+02 1.7300000000e+02 0.0000e+00 1.0000e+00
       21  1    1    2  504  505 +2.5576014812e+01 +1.8655952431e+00 -2.8552759596e+01 3.8378028348e+01 0.0000000000e+00 0.0000e+00 -1.0000e+00
       21  1    1    2  505  503 +2.5440800725e+01 +1.4525868284e+01 -1.7474710825e+01 3.4111592009e+01 0.0000000000e+00 0.0000e+00 -1.0000e+00
<mgrwt>
<rscale>  4 0.20399060E+03</rscale>
<asrwt>0</asrwt>
<pdfrwt beam="1">  1       21 0.20052401E+00 0.20399060E+03</pdfrwt>
<pdfrwt beam="2">  1       21 0.14545765E-01 0.20399060E+03</pdfrwt>
<totfact> 0.54706575E+03</totfact>
</mgrwt>
</event>
<event>
 6      1 +2.5196620e+02 1.83485300e+02 7.54677100e-03 1.14954000e-01
       21 -1    0    0  505  502 +0.0000000000e+00 +0.0000000000e+00 +1.0655629088e+02 1.0655629088e+02 0.0000000000e+00 0.0000e+00 1.0000e+00
       21 -1    0    0  502  503 -0.0000000000e+00 -0.0000000000e+00 -1.7809304305e+03 1.7809304305e+03 0.0000000000e+00 0.0000e+00 1.0000e+00
        6  1    1    2  501    0 +8.1039132876e+00 +1.6616587295e+02 -6.8713493829e+02 7.2784627097e+02 1.7300000000e+02 0.0000e+00 1.0000e+00
       -6  1    1    2    0  503 -3.6732158640e+01 -9.9148000962e+00 -9.7221540417e+02 9.8822029267e+02 1.7300000000e+02 0.0000e+00 1.0000e+00
       21  1    1    2  504  501 +4.8489805082e+01 -1.1994568255e+02 -1.1645824060e+01 1.2989939637e+02 0.0000000000e+00 0.0000e+00 1.0000e+00
       21  1    1    2  505  504 -1.9861559730e+01 -3.6305390298e+01 -3.3779730628e+00 4.1520761332e+01 0.0000000000e+00 0.0000e+00 -1.0000e+00
<mgrwt>
<rscale>  4 0.18348529E+03</rscale>
<asrwt>0</asrwt>
<pdfrwt beam="1">  1       21 0.16393276E-01 0.18348529E+03</pdfrwt>
<pdfrwt beam="2">  1       21 0.27398930E+00 0.18348529E+03</pdfrwt>
<totfact> 0.16263510E+03</totfact>
</mgrwt>
</event>
<event>
 6      1 +2.5196620e+02 1.73633900e+02 7.54677100e-03 1.16558800e-01
       21 -1    0    0  503  502 +0.0000000000e+00 +0.0000000000e+00 +2.2041655675e+02 2.2041655675e+02 0.0000000000e+00 0.0000e+00 1.0000e+00
       21 -1    0    0  504  503 -0.0000000000e+00 -0.0000000000e+00 -6.2024083896e+02 6.2024083896e+02 0.0000000000e+00 0.0000e+00 1.0000e+00
        6  1    1    2  501    0 +2.0897325657e+01 +2.1984904352e+01 -3.4474703042e+02 3.8691025991e+02 1.7300000000e+02 0.0000e+00 -1.0000e+00
       -6  1    1    2    0  505 +2.9013666464e+01 -9.3564031078e-01 -1.6330461896e+02 2.3966657430e+02 1.7300000000e+02 0.0000e+00 1.0000e+00
       21  1    1    2  504  501 -2.7013256330e+01 -6.8622266277e-01 -4.7888252342e+01 5.4986103986e+01 0.0000000000e+00 0.0000e+00 -1.0000e+00
       21  1    1    2  505  502 -2.2897735791e+01 -2.0363041378e+01 +1.5611561950e+02 1.5909445751e+02 0.0000000000e+00 0.0000e+00 1.0000e+00
<mgrwt>
<rscale>  4 0.17363395E+03</rscale>
<asrwt>0</asrwt>
<pdfrwt beam="1">  1       21 0.33910240E-01 0.17363395E+03</pdfrwt>
<pdfrwt beam="2">  1       21 0.95421665E-01 0.17363395E+03</pdfrwt>
<totfact> 0.77919827E+03</totfact>
</mgrwt>
</event>
<event>
 6      1 +2.5196620e+02 2.05100100e+02 7.54677100e-03 1.02776600e-01
       21 -1    0    0  503  502 +0.0000000000e+00 +0.0000000000e+00 +1.2521945450e+02 1.2521945450e+02 0.0000000000e+00 0.0000e+00 -1.0000e+00
       21 -1    0    0  505  503 -0.0000000000e+00 -0.0000000000e+00 -5.9633071417e+02 5.9633071417e+02 0.0000000000e+00 0.0000e+00 -1.0000e+00
        6  1    1    2  501    0 +4.6955381738e+01 -5.7706646076e+01 -1.4984286911e+02 2.4065899173e+02 1.7300000000e+02 0.0000e+00 -1.0000e+00
       -6  1    1    2    0  502 -9.0633640783e+01 +1.0767007665e+02 -9.2294729910e+01 2.4135993747e+02 1.7300000000e+02 0.0000e+00 -1.0000e+00
       21  1    1    2  504  501 +1.6614552244e+01 -3.6042633143e+01 -1.3862983116e+02 1.4419897655e+02 0.0000000000e+00 0.0000e+00 -1.0000e+00
       21  1    1    2  505  504 +2.7063706802e+01 -1.3920797434e+01 -9.0343829486e+01 9.5332262919e+01 0.0000000000e+00 0.0000e+00 -1.0000e+00
<mgrwt>
<rscale>  4 0.20510007E+03</rscale>
<asrwt>0</asrwt>
<pdfrwt beam="1">  1       21 0.19264532E-01 0.20510007E+03</pdfrwt>
<pdfrwt beam="2">  1       21 0.91743186E-01 0.20510007E+03</pdfrwt>
<totfact> 0.24692188E+04</totfact>
</mgrwt>
</event>
<event>
 6      1 +2.5196620e+02 3.34777600e+02 7.54677100e-03 1.16558800e-01
       21 -1    0    0  505  502 +0.0000000000e+00 +0.0000000000e+00 +3.8068758004e+02 3.8068758004e+02 0.0000000000e+00 0.0000e+00 -1.0000e+00
       21 -1    0    0  504  503 -0.0000000000e+00 -0.0000000000e+00 -9.1199726400e+02 9.1199726400e+02 0.0000000000e+00 0.0000e+00 -1.0000e+00
        6  1    1    2  501    0 -4.1968154169e+00 +5.7524961346e+01 -3.6060823851e+02 4.0409656782e+02 1.7300000000e+02 0.0000e+00 -1.0000e+00
       -6  1    1    2    0  502 +2.5025214285e+02 -1.6453337525e+02 +1.3802915201e+02 3.7239550665e+02 1.7300000000e+02 0.0000e+00 -1.0000e+00
       21  1    1    2  504  501 -2.2671321094e+02 +1.2455394306e+02 -3.6892634200e+02 4.5057653131e+02 0.0000000000e+00 0.0000e+00 -1.0000e+00
       21  1    1    2  505  503 -1.9342116490e+01 -1.7545529163e+01 +6.0195744537e+01 6.5616238267e+01 0.0000000000e+00 0.0000e+00 1.0000e+00
<mgrwt>
<rscale>  4 0.28747371E+03</rscale>
<asrwt>0</asrwt>
<pdfrwt beam="1">  1       21 0.58567320E-01 0.33477763E+03</pdfrwt>
<pdfrwt beam="2">  1       21 0.14030727E+00 0.33477763E+03</pdfrwt>
<totfact> 0.86756703E+02</totfact>
</mgrwt>
</event>
<event>
 6      1 +2.5196620e+02 1.92686300e+02 7.54677100e-03 1.11396600e-01
       21 -1    0    0  504  502 +0.0000000000e+00 +0.0000000000e+00 +3.6091253589e+02 3.6091253589e+02 0.0000000000e+00 0.0000e+00 -1.0000e+00
       21 -1    0    0  501  503 -0.0000000000e+00 -0.0000000000e+00 -4.2841003320e+02 4.2841003320e+02 0.0000000000e+00 0.0000e+00 1.0000e+00
        6  1    1    2  501    0 -7.0343554877e+01 -5.7329849013e+01 -3.0722930782e+02 3.6407935246e+02 1.7300000000e+02 0.0000e+00 1.0000e+00
       -6  1    1    2    0  502 +8.4237472661e+01 -1.2220315729e+01 +2.1949252864e+01 1.9405168801e+02 1.7300000000e+02 0.0000e+00 -1.0000e+00
       21  1    1    2  504  505 -1.2964969506e+01 +2.9080130775e+01 +5.5971541230e+01 6.4393771964e+01 0.0000000000e+00 0.0000e+00 -1.0000e+00
       21  1    1    2  505  503 -9.2894827825e-01 +4.0470033968e+01 +1.6181101641e+02 1.6679775666e+02 0.0000000000e+00 0.0000e+00 -1.0000e+00
<mgrwt>
<rscale>  4 0.19268633E+03</rscale>
<asrwt>0</asrwt>
<pdfrwt beam="1">  1       21 0.55525006E-01 0.19268633E+03</pdfrwt>
<pdfrwt beam="2">  1       21 0.65909236E-01 0.19268633E+03</pdfrwt>
<totfact> 0.64644584E+03</totfact>
</mgrwt>
</event>
<event>
 6      1 +2.5196620e+02 1.93787700e+02 7.54677100e-03 1.11396600e-01
       21 -1    0    0  504  502 +0.0000000000e+00 +0.0000000000e+00 +1.8181259984e+02 1.8181259984e+02 0.0000000000e+00 0.0000e+00 -1.0000e+00
       21 -1    0    0  501  503 -0.0000000000e+00 -0.0000000000e+00 -3.6030279683e+02 3.6030279683e+02 0.0000000000e+00 0.0000e+00 -1.0000e+00
        6  1    1    2  501    0 +1.3038691308e+02 +4.9076741176e+01 -8.0168365031e+00 2.2226682905e+02 1.7300000000e+02 0.0000e+00 -1.0000e+00
       -6  1    1    2    0  502 -6.6656807973e+01 -6.6171801977e+00 -1.5122777150e+02 2.3934442963e+02 1.7300000000e+02 0.0000e+00 -1.0000e+00
       21  1    1    2  504  505 -2.8189304189e+01 -1.6209681061e+01 -5.3499852129e-01 3.2521944194e+01 0.0000000000e+00 0.0000e+00 1.0000e+00
       21  1    1    2  505  503 -3.5540800919e+01 -2.6249879917e+01 -1.8710590458e+01 4.7982193790e+01 0.0000000000e+00 0.0000e+00 -1.0000e+00
<mgrwt>
<rscale>  4 0.19378771E+03</rscale>
<asrwt>0</asrwt>
<pdfrwt beam="1">  1       21 0.27971170E-01 0.19378771E+03</pdfrwt>
<pdfrwt beam="2">  1       21 0.55431198E-01 0.19378771E+03</pdfrwt>
<totfact> 0.37434167E+04</totfact>
</mgrwt>
</event>
<event>
 6      1 +2.5196620e+02 5.63644400e+02 7.54677100e-03 9.49153200e-02
       21 -1    0    0  505  502 +0.0000000000e+00 +0.0000000000e+00 +1.0755249859e+03 1.0755249859e+03 0.0000000000e+00 0.0000e+00 -1.0000e+00
       21 -1    0    0  501  503 -0.0000000000e+00 -0.0000000000e+00 -1.8131370905e+03 1.8131370905e+03 0.0000000000e+00 0.0000e+00 1.0000e+00
        6  1    1    2  501    0 +3.3873747362e+02 -2.7612408945e+01 -5.2595863633e+02 6.4966684408e+02 1.7300000000e+02 0.0000e+00 1.0000e+00
       -6  1    1    2    0  502 +4.6929351637e+01 -5.8350183953e+02 +2.7498199748e+02 6.6949298706e+02 1.7300000000e+02 0.0000e+00 -1.0000e+00
       21  1    1    2  504  503 -1.3777383634e+02 +1.5035210830e+02 -8.8734180613e+02 9.1047397951e+02 0.0000000000e+00 0.0000e+00 1.0000e+00
       21  1    1    2  505  504 -2.4789298892e+02 +4.6076214017e+02 +4.0070634040e+02 6.5902826571e+02 0.0000000000e+00 0.0000e+00 -1.0000e+00
<mgrwt>
<rscale>  4 0.48613194E+03</rscale>
<asrwt>0</asrwt>
<pdfrwt beam="1">  1       21 0.16546538E+00 0.56364435E+03</pdfrwt>
<pdfrwt beam="2">  1       21 0.27894417E+00 0.56364435E+03</pdfrwt>
<totfact> 0.69946128E+00</totfact>
</mgrwt>
</event>
<event>
 6      1 +2.5196620e+02 2.44907900e+02 7.54677100e-03 1.02776600e-01
       21 -1    0    0  503  502 +0.0000000000e+00 +0.0000000000e+00 +1.9165510790e+03 1.9165510790e+03 0.0000000000e+00 0.0000e+00 1.0000e+00
       21 -1    0    0  504  503 -0.0000000000e+00 -0.0000000000e+00 -9.8832116055e+01 9.8832116055e+01 0.0000000000e+00 0.0000e+00 -1.0000e+00
        6  1    1    2  501    0 -1.8783988669e+02 -2.3426822779e+01 +6.5210633853e+02 7.0071700123e+02 1.7300000000e+02 0.0000e+00 -1.0000e+00
       -6  1    1    2    0  502 +1.6550619478e+02 +8.8374536904e+00 +1.2014846309e+03 1.2251386531e+03 1.7300000000e+02 0.0000e+00 1.0000e+00
       21  1    1    2  504  505 +2.6126193237e+01 +3.8765070186e+01 -4.3539915062e+01 6.3882962073e+01 0.0000000000e+00 0.0000e+00 -1.0000e+00
       21  1    1    2  505  501 -3.7925013210e+00 -2.4175701097e+01 +7.6679085447e+00 2.5644578594e+01 0.0000000000e+00 0.0000e+00 1.0000e+00
<mgrwt>
<rscale>  4 0.24490789E+03</rscale>
<asrwt>0</asrwt>
<pdfrwt beam="1">  1       21 0.29485398E+00 0.24490789E+03</pdfrwt>
<pdfrwt beam="2">  1       21 0.15204942E-01 0.24490789E+03</pdfrwt>
<totfact> 0.13160494E+03</totfact>
</mgrwt>
</event>
<event>
 6      1 +2.5196620e+02 3.45615500e+02 7.54677100e-03 9.49153200e-02
       21 -1    0    0  505  502 +0.0000000000e+00 +0.0000000000e+00 +1.1515002089e+03 1.1515002089e+03 0.0000000000e+00 0.0000e+00 -1.0000e+00
       21 -1    0    0  501  503 -0.0000000000e+00 -0.0000000000e+00 -4.2063046353e+02 4.2063046353e+02 0.0000000000e+00 0.0000e+00 1.0000e+00
        6  1    1    2  501    0 +2.4473026804e+02 +1.5441509975e+02 -7.6582560423e+00 3.3723074595e+02 1.7300000000e+02 0.0000e+00 1.0000e+00
       -6  1    1    2    0  502 -2.6321929433e+02 -2.8198299453e+02 +7.3422316959e+02 8.4723755162e+02 1.7300000000e+02 0.0000e+00 -1.0000e+00
       21  1    1    2  504  503 +9.2443289111e+00 -3.0256115363e+01 -1.5797053425e+02 1.6110735497e+02 0.0000000000e+00 0.0000e+00 1.0000e+00
       21  1    1    2  505  504 +9.2446973882e+00 +1.5782401014e+02 +1.6227536609e+02 2.2655501991e+02 0.0000000000e+00 0.0000e+00 -1.0000e+00
<mgrwt>
<rscale>  4 0.34561555E+03</rscale>
<asrwt>0</asrwt>
<pdfrwt beam="1">  1       21 0.17715388E+00 0.34561555E+03</pdfrwt>
<pdfrwt beam="2">  1       21 0.64712380E-01 0.34561555E+03</pdfrwt>
<totfact> 0.36533053E+02</totfact>
</mgrwt>
</event>
<event>
 6      1 +2.5196620e+02 3.57454200e+02 7.54677100e-03 9.49153200e-02
       21 -1    0    0  505  502 +0.0000000000e+00 +0.0000000000e+00 +1.2908086340e+03 1.2908086340e+03 0.0000000000e+00 0.0000e+00 1.0000e+00
       21 -1    0    0  501  503 -0.0000000000e+00 -0.0000000000e+00 -3.0972725185e+02 3.0972725185e+02 0.0000000000e+00 0.0000e+00 1.0000e+00
        6  1    1    2  501    0 -3.5389176919e+00 -9.3958330086e+01 -1.2582509341e+02 2.3366995071e+02 1.7300000000e+02 0.0000e+00 1.0000e+00
       -6  1    1    2    0  502 -1.5887474702e+02 -2.0851769905e+02 +1.8914571735e+02 3.6664140308e+02 1.7300000000e+02 0.0000e+00 1.0000e+00
       21  1    1    2  504  503 +2.4528717248e+01 +1.5931535433e+00 -2.9344669139e-02 2.4580418409e+01 0.0000000000e+00 0.0000e+00 -1.0000e+00
       21  1    1    2  505  504 +1.3788494747e+02 +3.0088287559e+02 +9.1779010289e+02 9.7564411367e+02 0.0000000000e+00 0.0000e+00 1.0000e+00
<mgrwt>
<rscale>  4 0.30788287E+03</rscale>
<asrwt>0</asrwt>
<pdfrwt beam="1">  1       21 0.19858594E+00 0.35745422E+03</pdfrwt>
<pdfrwt beam="2">  1       21 0.47650347E-01 0.35745422E+03</pdfrwt>
<totfact> 0.50029062E+02</totfact>
</mgrwt>
</event>
<event>
 6      1 +2.5196620e+02 1.77479100e+02 7.54677100e-03 1.06301000e-01
       21 -1    0    0  503  502 +0.0000000000e+00 +0.0000000000e+00 +2.2700883535e+02 2.2700883535e+02 0.0000000000e+00 0.0000e+00 1.0000e+00
       21 -1    0    0  504  503 -0.0000000000e+00 -0.0000000000e+00 -3.5821314921e+02 3.5821314921e+02 0.0000000000e+00 0.0000e+00 1.0000e+00
        6  1    1    2  501    0 +2.2770038905e+01 -3.6650741753e+01 -1.4854219972e+02 2.3206795695e+02 1.7300000000e+02 0.0000e+00 -1.0000e+00
       -6  1    1    2    0  505 +2.2275968821e+01 +1.1243052569e+01 +2.9712863475e+00 1.7481548433e+02 1.7300000000e+02 0.0000e+00 -1.0000e+00
       21  1    1    2  504  501 +2.6879639030e+01 -2.8185212769e+01 -5.3276631974e+01 6.5994853797e+01 0.0000000000e+00 0.0000e+00 1.0000e+00
       21  1    1    2  505  502 -7.1925646755e+01 +5.3592901953e+01 +6.7643231491e+01 1.1234368949e+02 0.0000000000e+00 0.0000e+00 1.0000e+00
<mgrwt>
<rscale>  4 0.17747908E+03</rscale>
<asrwt>0</asrwt>
<pdfrwt beam="1">  1       21 0.34924436E-01 0.17747908E+03</pdfrwt>
<pdfrwt beam="2">  1       21 0.55109715E-01 0.17747908E+03</pdfrwt>
<totfact> 0.24761301E+04</totfact>
</mgrwt>
</event>
<event>
 6      1 +2.5196620e+02 3.69128800e+02 7.54677100e-03 9.49153200e-02
       21 -1    0    0  503  502 +0.0000000000e+00 +0.0000000000e+00 +2.2583489751e+02 2.2583489751e+02 0.0000000000e+00 0.0000e+00 -1.0000e+00
       21 -1    0    0  504  503 -0.0000000000e+00 -0.0000000000e+00 -8.8614869384e+02 8.8614869384e+02 0.0000000000e+00 0.0000e+00 1.0000e+00
        6  1    1    2  501    0 -2.8466774069e+02 +7.0734817166e+00 -1.9878965093e+02 3.8798464152e+02 1.7300000000e+02 0.0000e+00 -1.0000e+00
       -6  1    1    2    0  505 +3.6578442698e+02 +1.2741633408e+01 -3.6014678596e+02 5.4184435374e+02 1.7300000000e+02 0.0000e+00 1.0000e+00
       21  1    1    2  504  501 +2.2599186116e+00 -2.9060961282e+01 -9.3453114018e+01 9.7893468742e+01 0.0000000000e+00 0.0000e+00 -1.0000e+00
       21  1    1    2  505  502 -8.3376604902e+01 +9.2458461575e+00 -7.9242454202e+00 8.4261127346e+01 0.0000000000e+00 0.0000e+00 -1.0000e+00
<mgrwt>
<rscale>  4 0.36912878E+03</rscale>
<asrwt>0</asrwt>
<pdfrwt beam="1">  1       21 0.34743830E-01 0.36912878E+03</pdfrwt>
<pdfrwt beam="2">  1       21 0.13633057E+00 0.36912878E+03</pdfrwt>
<totfact> 0.27310566E+03</totfact>
</mgrwt>
</event>
<event>
 6      1 +2.5196620e+02 2.45094400e+02 7.54677100e-03 1.14954000e-01
       21 -1    0    0  505  502 +0.0000000000e+00 +0.0000000000e+00 +1.3030391714e+03 1.3030391714e+03 0.0000000000e+00 0.0000e+00 1.0000e+00
       21 -1    0    0  502  503 -0.0000000000e+00 -0.0000000000e+00 -2.6530115238e+02 2.6530115238e+02 0.0000000000e+00 0.0000e+00 -1.0000e+00
        6  1    1    2  501    0 -8.5101529061e+01 -1.4368263781e+02 -5.0483647309e+01 2.4569202124e+02 1.7300000000e+02 0.0000e+00 -1.0000e+00
       -6  1    1    2    0  503 +7.3865742845e+01 +1.6812551142e+02 +2.0234205294e+01 2.5310226909e+02 1.7300000000e+02 0.0000e+00 -1.0000e+00
       21  1    1    2  504  501 +2.3857295728e+01 +2.3419378291e+00 +2.8770080549e+02 2.8869778092e+02 0.0000000000e+00 0.0000e+00 1.0000e+00
       21  1    1    2  505  504 -1.2621509513e+01 -2.6784811439e+01 +7.8028665551e+02 7.8084825247e+02 0.0000000000e+00 0.0000e+00 1.0000e+00
<mgrwt>
<rscale>  4 0.24509436E+03</rscale>
<asrwt>0</asrwt>
<pdfrwt beam="1">  1       21 0.20046756E+00 0.24509436E+03</pdfrwt>
<pdfrwt beam="2">  1       21 0.40815563E-01 0.24509436E+03</pdfrwt>
<totfact> 0.72981977E+02</totfact>
</mgrwt>
</event>
<event>
 6      1 +2.5196620e+02 2.81010900e+02 7.54677100e-03 1.16558800e-01
       21 -1    0    0  505  502 +0.0000000000e+00 +0.0000000000e+00 +2.6235725682e+02 2.6235725682e+02 0.0000000000e+00 0.0000e+00 -1.0000e+00
       21 -1    0    0  504  503 -0.0000000000e+00 -0.0000000000e+00 -1.8925366151e+03 1.8925366151e+03 0.0000000000e+00 0.0000e+00 -1.0000e+00
        6  1    1    2  501    0 +5.1145034654e+01 +1.3208011128e+02 -4.4460071147e+02 4.9765426051e+02 1.7300000000e+02 0.0000e+00 -1.0000e+00
       -6  1    1    2    0  502 -1.2897569256e+02 -2.5121408776e+02 -1.3430164603e+03 1.3832445408e+03 1.7300000000e+02 0.0000e+00 -1.0000e+00
       21  1    1    2  504  501 +7.2650519267e+01 +9.6573722707e+01 +6.2130413445e+00 1.2100902342e+02 0.0000000000e+00 0.0000e+00 -1.0000e+00
       21  1    1    2  505  503 +5.1801386379e+00 +2.2560253781e+01 +1.5122477217e+02 1.5298604710e+02 0.0000000000e+00 0.0000e+00 -1.0000e+00
<mgrwt>
<rscale>  4 0.28101085E+03</rscale>
<asrwt>0</asrwt>
<pdfrwt beam="1">  1       21 0.40362655E-01 0.28101085E+03</pdfrwt>
<pdfrwt beam="2">  1       21 0.29115947E+00 0.28101085E+03</pdfrwt>
<totfact> 0.20312096E+02</totfact>
</mgrwt>
</event>
<event>
 6      1 +2.5196620e+02 2.31719700e+02 7.54677100e-03 1.11396600e-01
       21 -1    0    0  504  502 +0.0000000000e+00 +0.0000000000e+00 +4.8225703860e+02 4.8225703860e+02 0.0000000000e+00 0.0000e+00 1.0000e+00
       21 -1    0    0  502  503 -0.0000000000e+00 -0.0000000000e+00 -5.8098310837e+02 5.8098310837e+02 0.0000000000e+00 0.0000e+00 1.0000e+00
        6  1    1    2  501    0 -1.1359727252e+02 -7.1893272811e+01 -4.8936202151e+01 2.2449217109e+02 1.7300000000e+02 0.0000e+00 1.0000e+00
       -6  1    1    2    0  503 +1.2957051106e+02 +9.6561418512e+01 -3.9721572268e+02 4.6240886154e+02 1.7300000000e+02 0.0000e+00 1.0000e+00
       21  1    1    2  504  505 +3.4681927855e+01 +4.5875003820e+01 +1.2662435363e+02 1.3907220796e+02 0.0000000000e+00 0.0000e+00 -1.0000e+00
       21  1    1    2  505  501 -5.0655166392e+01 -7.0543149521e+01 +2.2080150144e+02 2.3726690638e+02 0.0000000000e+00 0.0000e+00 1.0000e+00
<mgrwt>
<rscale>  4 0.23171967E+03</rscale>
<asrwt>0</asrwt>
<pdfrwt beam="1">  1       21 0.74193390E-01 0.23171967E+03</pdfrwt>
<pdfrwt beam="2">  1       21 0.89382017E-01 0.23171967E+03</pdfrwt>
<totfact> 0.16804298E+03</totfact>
</mgrwt>
</event>
<event>
 6      1 +2.5196620e+02 1.79153300e+02 7.54677100e-03 1.16321900e-01
       21 -1    0    0  504  502 +0.0000000000e+00 +0.0000000000e+00 +2.6911212071e+02 2.6911212071e+02 0.0000000000e+00 0.0000e+00 1.0000e+00
       21 -1    0    0  501  503 -0.0000000000e+00 -0.0000000000e+00 -6.7203122226e+02 6.7203122226e+02 0.0000000000e+00 0.0000e+00 1.0000e+00
        6  1    1    2  501    0 -1.9869995061e+01 +6.5382432691e+01 +1.3032263155e+02 2.2711817959e+02 1.7300000000e+02 0.0000e+00 1.0000e+00
       -6  1    1    2    0  502 -1.4429362712e+01 -9.9867182494e+00 -4.3677022737e+00 1.7394257062e+02 1.7300000000e+02 0.0000e+00 -1.0000e+00
       21  1    1    2  504  505 +6.3012744767e+01 -3.0561116170e+01 -3.8295868844e+02 3.8930957460e+02 0.0000000000e+00 0.0000e+00 1.0000e+00
       21  1    1    2  505  503 -2.8713386994e+01 -2.4834598271e+01 -1.4591534238e+02 1.5077301817e+02 0.0000000000e+00 0.0000e+00 1.0000e+00
<mgrwt>
<rscale>  4 0.17915329E+03</rscale>
<asrwt>0</asrwt>
<pdfrwt beam="1">  1       21 0.41401865E-01 0.17915329E+03</pdfrwt>
<pdfrwt beam="2">  1       21 0.10338942E+00 0.17915329E+03</pdfrwt>
<totfact> 0.43073010E+03</totfact>
</mgrwt>
</event>
<event>
 6      1 +2.5196620e+02 1.93867400e+02 7.54677100e-03 1.12691600e-01
       21 -1    0    0  501  502 +0.0000000000e+00 +0.0000000000e+00 +5.4429404130e+02 5.4429404130e+02 0.0000000000e+00 0.0000e+00 -1.0000e+00
       21 -1    0    0  504  503 -0.0000000000e+00 -0.0000000000e+00 -3.3580290087e+02 3.3580290087e+02 0.0000000000e+00 0.0000e+00 -1.0000e+00
        6  1    1    2  501    0 +5.1124024504e+01 -3.2654075413e+01 -3.4037268660e+01 1.8646042524e+02 1.7300000000e+02 0.0000e+00 -1.0000e+00
       -6  1    1    2    0  503 -1.2696607078e+02 -4.7860700348e+01 -5.5124725782e+01 2.2666884471e+02 1.7300000000e+02 0.0000e+00 -1.0000e+00
       21  1    1    2  504  505 -7.3134496413e+00 +9.3313736890e+01 -5.2178338829e+01 1.0716118272e+02 0.0000000000e+00 0.0000e+00 -1.0000e+00
       21  1    1    2  505  502 +8.3155495919e+01 -1.2798961129e+01 +3.4983147369e+02 3.5980648951e+02 0.0000000000e+00 0.0000e+00 -1.0000e+00
<mgrwt>
<rscale>  4 0.19386741E+03</rscale>
<asrwt>0</asrwt>
<pdfrwt beam="1">  1       21 0.83737545E-01 0.19386741E+03</pdfrwt>
<pdfrwt beam="2">  1       21 0.51661985E-01 0.19386741E+03</pdfrwt>
<totfact> 0.44084338E+03</totfact>
</mgrwt>
</event>
<event>
 6      1 +2.5196620e+02 3.68678900e+02 7.54677100e-03 9.49153200e-02
       21 -1    0    0  505  502 +0.0000000000e+00 +0.0000000000e+00 +1.0273998291e+02 1.0273998291e+02 0.0000000000e+00 0.0000e+00 1.0000e+00
       21 -1    0    0  501  503 -0.0000000000e+00 -0.0000000000e+00 -2.8755219732e+03 2.8755219732e+03 0.0000000000e+00 0.0000e+00 -1.0000e+00
        6  1    1    2  501    0 -1.5768060323e+01 -2.8309310942e+02 -1.5383939936e+03 1.5738409767e+03 1.7300000000e+02 0.0000e+00 -1.0000e+00
       -6  1    1    2    0  502 +3.9401600059e+01 +3.8204283545e+02 -7.4539352811e+02 8.5618323153e+02 1.7300000000e+02 0.0000e+00 1.0000e+00
       21  1    1    2  504  503 +1.6760140146e+01 -3.8123491580e+01 -4.7126189814e+02 4.7309838252e+02 0.0000000000e+00 0.0000e+00 -1.0000e+00
       21  1    1    2  505  504 -4.0393679882e+01 -6.0826234446e+01 -1.7732570403e+01 7.5139365345e+01 0.0000000000e+00 0.0000e+00 -1.0000e+00
<mgrwt>
<rscale>  4 0.36867893E+03</rscale>
<asrwt>0</asrwt>
<pdfrwt beam="1">  1       21 0.15806149E-01 0.36867893E+03</pdfrwt>
<pdfrwt beam="2">  1       21 0.44238807E+00 0.36867893E+03</pdfrwt>
<totfact> 0.13360576E+02</totfact>
</mgrwt>
</event>
<event>
 6      1 +2.5196620e+02 2.23267300e+02 7.54677100e-03 9.28652600e-02
       21 -1    0    0  505  502 +0.0000000000e+00 +0.0000000000e+00 +1.1861245705e+02 1.1861245705e+02 0.0000000000e+00 0.0000e+00 -1.0000e+00
       21 -1    0    0  504  503 -0.0000000000e+00 -0.0000000000e+00 -6.0813985382e+02 6.0813985382e+02 0.0000000000e+00 0.0000e+00 1.0000e+00
        6  1    1    2  501    0 -1.5472200389e+02 +9.1832923776e+00 -1.7872578729e+02 2.9307872388e+02 1.7300000000e+02 0.0000e+00 1.0000e+00
       -6  1    1    2    0  502 +1.2520551632e+02 -3.3852945023e+01 -1.6557848652e+02 2.7233743482e+02 1.7300000000e+02 0.0000e+00 -1.0000e+00
       21  1    1    2  504  501 +7.6289898612e+00 -1.9041001707e+01 -5.5346622480e+01 5.9025501711e+01 0.0000000000e+00 0.0000e+00 -1.0000e+00
       21  1    1    2  505  503 +2.1887497712e+01 +4.3710654353e+01 -8.9876500475e+01 1.0231065046e+02 0.0000000000e+00 0.0000e+00 1.0000e+00
<mgrwt>
<rscale>  4 0.22326728E+03</rscale>
<asrwt>0</asrwt>
<pdfrwt beam="1">  1       21 0.18248070E-01 0.22326728E+03</pdfrwt>
<pdfrwt beam="2">  1       21 0.93559977E-01 0.22326728E+03</pdfrwt>
<totfact> 0.25828653E+04</totfact>
</mgrwt>
</event>
<event>
 6      1 +2.5196620e+02 2.52219600e+02 7.54677100e-03 1.02776600e-01
       21 -1    0    0  505  502 +0.0000000000e+00 +0.0000000000e+00 +7.5847260458e+02 7.5847260458e+02 0.0000000000e+00 0.0000e+00 -1.0000e+00
       21 -1    0    0  501  503 -0.0000000000e+00 -0.0000000000e+00 -1.9283640306e+03 1.9283640306e+03 0.0000000000e+00 0.0000e+00 1.0000e+00
        6  1    1    2  501    0 +1.9717185758e+02 +6.3995366791e+01 -5.1653015951e+02 5.8284179163e+02 1.7300000000e+02 0.0000e+00 1.0000e+00
       -6  1    1    2    0  502 -5.0908651367e+01 -1.7909985088e+02 +6.9476321429e+02 7.3979278944e+02 1.7300000000e+02 0.0000e+00 -1.0000e+00
       21  1    1    2  504  503 -7.0203042970e+01 +7.4661162943e+01 -1.0134593144e+03 1.0186277723e+03 0.0000000000e+00 0.0000e+00 1.0000e+00
       21  1    1    2  505  504 -7.6060163244e+01 +4.0443321147e+01 -3.3466516641e+02 3.4557428183e+02 0.0000000000e+00 0.0000e+00 -1.0000e+00
<mgrwt>
<rscale>  4 0.25221961E+03</rscale>
<asrwt>0</asrwt>
<pdfrwt beam="1">  1       21 0.11668809E+00 0.25221961E+03</pdfrwt>
<pdfrwt beam="2">  1       21 0.29667139E+00 0.25221961E+03</pdfrwt>
<totfact> 0.18309101E+01</totfact>
</mgrwt>
</event>
<event>
 6      1 +2.5196620e+02 2.38086100e+02 7.54677100e-03 9.49153200e-02
       21 -1    0    0  505  502 +0.0000000000e+00 +0.0000000000e+00 +6.1567577284e+02 6.1567577284e+02 0.0000000000e+00 0.0000e+00 1.0000e+00
       21 -1    0    0  501  503 -0.0000000000e+00 -0.0000000000e+00 -4.6907116310e+02 4.6907116310e+02 0.0000000000e+00 0.0000e+00 1.0000e+00
        6  1    1    2  501    0 +1.2580498430e+02 +9.1432274413e+01 -3.5037206607e+02 4.2056668861e+02 1.7300000000e+02 0.0000e+00 1.0000e+00
       -6  1    1    2    0  502 -2.0322075596e+02 -1.4503246785e+02 +3.1378173643e+02 4.3671623567e+02 1.7300000000e+02 0.0000e+00 1.0000e+00
       21  1    1    2  504  503 +3.7832207637e+01 -5.9730553701e+00 +9.2705941043e+00 3.9406817180e+01 0.0000000000e+00 0.0000e+00 -1.0000e+00
       21  1    1    2  505  504 +3.9583564016e+01 +5.9573248805e+01 +1.7392434528e+02 1.8805719448e+02 0.0000000000e+00 0.0000e+00 -1.0000e+00
<mgrwt>
<rscale>  4 0.23808607E+03</rscale>
<asrwt>0</asrwt>
<pdfrwt beam="1">  1       21 0.94719349E-01 0.23808607E+03</pdfrwt>
<pdfrwt beam="2">  1       21 0.72164795E-01 0.23808607E+03</pdfrwt>
<totfact> 0.15533028E+03</totfact>
</mgrwt>
</event>
<event>
 6      1 +2.5196620e+02 3.18599000e+02 7.54677100e-03 1.09711200e-01
       21 -1    0    0  501  502 +0.0000000000e+00 +0.0000000000e+00 +1.0018259403e+03 1.0018259403e+03 0.0000000000e+00 0.0000e+00 -1.0000e+00
       21 -1    0    0  505  503 -0.0000000000e+00 -0.0000000000e+00 -4.9846206429e+02 4.9846206429e+02 0.0000000000e+00 0.0000e+00 1.0000e+00
        6  1    1    2  501    0 -2.4002696147e+02 +1.8388670174e+02 +1.0792622285e+02 3.6469758827e+02 1.7300000000e+02 0.0000e+00 -1.0000e+00
       -6  1    1    2    0  503 +2.1080334225e+02 -1.4863746481e+02 -3.0284304579e+02 4.3379033580e+02 1.7300000000e+02 0.0000e+00 1.0000e+00
       21  1    1    2  504  502 +2.1033365302e+01 +1.0642959786e+01 +2.3038137102e+02 2.3158422045e+02 0.0000000000e+00 0.0000e+00 -1.0000e+00
       21  1    1    2  505  504 +8.1902539146e+00 -4.5892196719e+01 +4.6789932788e+02 4.7021586002e+02 0.0000000000e+00 0.0000e+00 -1.0000e+00
<mgrwt>
<rscale>  4 0.31859895E+03</rscale>
<asrwt>0</asrwt>
<pdfrwt beam="1">  1       21 0.15412707E+00 0.31859895E+03</pdfrwt>
<pdfrwt beam="2">  1       21 0.76686472E-01 0.31859895E+03</pdfrwt>
<totfact> 0.37522063E+02</totfact>
</mgrwt>
</event>
<event>
 6      1 +2.5196620e+02 1.82060300e+02 7.54677100e-03 1.14954000e-01
       21 -1    0    0  504  502 +0.0000000000e+00 +0.0000000000e+00 +6.0937139323e+02 6.0937139323e+02 0.0000000000e+00 0.0000e+00 1.0000e+00
       21 -1    0    0  502  503 -0.0000000000e+00 -0.0000000000e+00 -1.1644123545e+02 1.1644123545e+02 0.0000000000e+00 0.0000e+00 1.0000e+00
        6  1    1    2  501    0 -9.4880865040e+01 +2.8913553893e+01 +2.0134707088e+02 2.8338668830e+02 1.7300000000e+02 0.0000e+00 1.0000e+00
       -6  1    1    2    0  503 +7.0671393270e+00 -5.0546950306e+01 +5.7511848517e+01 1.8931865033e+02 1.7300000000e+02 0.0000e+00 1.0000e+00
       21  1    1    2  504  505 +1.9878001361e+01 +7.5005842949e+00 +9.9005650990e+01 1.0125962982e+02 0.0000000000e+00 0.0000e+00 1.0000e+00
       21  1    1    2  505  501 +6.7935724353e+01 +1.4132812119e+01 +1.3506558739e+02 1.5184766023e+02 0.0000000000e+00 0.0000e+00 1.0000e+00
<mgrwt>
<rscale>  4 0.18206026E+03</rscale>
<asrwt>0</asrwt>
<pdfrwt beam="1">  1       21 0.93749443E-01 0.18206026E+03</pdfrwt>
<pdfrwt beam="2">  1       21 0.17914037E-01 0.18206026E+03</pdfrwt>
<totfact> 0.27228890E+04</totfact>
</mgrwt>
</event>
<event>
 6      1 +2.5196620e+02 1.76110800e+02 7.54677100e-03 1.09711200e-01
       21 -1    0    0  504  502 +0.0000000000e+00 +0.0000000000e+00 +1.9349352430e+03 1.9349352430e+03 0.0000000000e+00 0.0000e+00 -1.0000e+00
       21 -1    0    0  505  503 -0.0000000000e+00 -0.0000000000e+00 -1.6693334269e+02 1.6693334269e+02 0.0000000000e+00 0.0000e+00 -1.0000e+00
        6  1    1    2  501    0 -6.0641113242e+01 +2.6341590213e+01 +9.6218406552e+01 2.0870602710e+02 1.7300000000e+02 0.0000e+00 1.0000e+00
       -6  1    1    2    0  503 +1.8609637836e+01 +2.3713535116e+01 -3.6148044795e+01 1.7928840317e+02 1.7300000000e+02 0.0000e+00 -1.0000e+00
       21  1    1    2  504  501 +1.3344256337e+01 +3.0922015196e+01 +1.5731266336e+02 1.6087732672e+02 0.0000000000e+00 0.0000e+00 -1.0000e+00
       21  1    1    2  505  502 +2.8687219069e+01 -8.0977140525e+01 +1.5506188752e+03 1.5529968287e+03 0.0000000000e+00 0.0000e+00 -1.0000e+00
<mgrwt>
<rscale>  4 0.17611082E+03</rscale>
<asrwt>0</asrwt>
<pdfrwt beam="1">  1       21 0.29768233E+00 0.17611082E+03</pdfrwt>
<pdfrwt beam="2">  1       21 0.25682054E-01 0.17611082E+03</pdfrwt>
<totfact> 0.51915345E+02</totfact>
</mgrwt>
</event>
<event>
 6      1 +2.5196620e+02 2.09976400e+02 7.54677100e-03 9.28652600e-02
       21 -1    0    0  505  502 +0.0000000000e+00 +0.0000000000e+00 +2.2827798810e+02 2.2827798810e+02 0.0000000000e+00 0.0000e+00 1.0000e+00
       21 -1    0    0  504  503 -0.0000000000e+00 -0.0000000000e+00 -4.5492547325e+02 4.5492547325e+02 0.0000000000e+00 0.0000e+00 -1.0000e+00
        6  1    1    2  501    0 +1.1221194060e+02 +3.6904974940e+01 -1.2442616269e+02 2.4364803868e+02 1.7300000000e+02 0.0000e+00 -1.0000e+00
       -6  1    1    2    0  502 -9.3711473403e+01 -7.7459455212e+01 +9.2475681205e+01 2.3078682602e+02 1.7300000000e+02 0.0000e+00 1.0000e+00
       21  1    1    2  504  501 -3.4693326688e+01 +3.5882059312e+00 -9.5975592459e+01 1.0211668075e+02 0.0000000000e+00 0.0000e+00 1.0000e+00
       21  1    1    2  505  503 +1.6192859491e+01 +3.6966274340e+01 -9.8721411203e+01 1.0665191591e+02 0.0000000000e+00 0.0000e+00 1.0000e+00
<mgrwt>
<rscale>  4 0.20997642E+03</rscale>
<asrwt>0</asrwt>
<pdfrwt beam="1">  1       21 0.35119691E-01 0.20997642E+03</pdfrwt>
<pdfrwt beam="2">  1       21 0.69988534E-01 0.20997642E+03</pdfrwt>
<totfact> 0.14328601E+04</totfact>
</mgrwt>
</event>
<event>
 6      1 +2.5196620e+02 2.53600800e+02 7.54677100e-03 1.06301000e-01
       21 -1    0    0  505  502 +0.0000000000e+00 +0.0000000000e+00 +7.4147368769e+02 7.4147368769e+02 0.0000000000e+00 0.0000e+00 -1.0000e+00
       21 -1    0    0  501  503 -0.0000000000e+00 -0.0000000000e+00 -4.9113181218e+02 4.9113181218e+02 0.0000000000e+00 0.0000e+00 -1.0000e+00
        6  1    1    2  501    0 -9.6439283186e+01 -1.9254733054e+02 -1.3663588671e+02 3.0817750628e+02 1.7300000000e+02 0.0000e+00 -1.0000e+00
       -6  1    1    2    0  502 +5.4878025442e+01 +1.4862284534e+02 -1.1430663297e+02 2.6095086544e+02 1.7300000000e+02 0.0000e+00 -1.0000e+00
       21  1    1    2  504  503 +2.6504406740e+01 +2.1272778459e+01 -7.7202116389e+01 8.4351534989e+01 0.0000000000e+00 0.0000e+00 -1.0000e+00
       21  1    1    2  505  504 +1.5056851004e+01 +2.2651706736e+01 +5.7848651158e+02 5.7912559316e+02 0.0000000000e+00 0.0000e+00 -1.0000e+00
<mgrwt>
<rscale>  4 0.25360083E+03</rscale>
<asrwt>0</asrwt>
<pdfrwt beam="1">  1       21 0.11407287E+00 0.25360083E+03</pdfrwt>
<pdfrwt beam="2">  1       21 0.75558740E-01 0.25360083E+03</pdfrwt>
<totfact> 0.88453804E+02</totfact>
</mgrwt>
</event>
<event>
 6      1 +2.5196620e+02 2.09668600e+02 7.54677100e-03 1.06301000e-01
       21 -1    0    0  505  502 +0.0000000000e+00 +0.0000000000e+00 +1.7914366380e+02 1.7914366380e+02 0.0000000000e+00 0.0000e+00 -1.0000e+00
       21 -1    0    0  504  503 -0.0000000000e+00 -0.0000000000e+00 -3.7650686487e+02 3.7650686487e+02 0.0000000000e+00 0.0000e+00 -1.0000e+00
        6  1    1    2  501    0 -2.2732068413e+01 -8.0020850864e+01 -7.9163315920e+01 2.0764371913e+02 1.7300000000e+02 0.0000e+00 -1.0000e+00
       -6  1    1    2    0  502 +2.4840677937e+00 +1.5637285573e+02 -5.3909806366e+01 2.3936145852e+02 1.7300000000e+02 0.0000e+00 -1.0000e+00
       21  1    1    2  504  501 +5.3954019345e+00 -3.8452259711e+01 -5.4259353405e+01 6.6721541280e+01 0.0000000000e+00 0.0000e+00 -1.0000e+00
       21  1    1    2  505  503 +1.4852598685e+01 -3.7899745160e+01 -1.0030725379e+01 4.1923809733e+01 0.0000000000e+00 0.0000e+00 -1.0000e+00
<mgrwt>
<rscale>  4 0.20966862E+03</rscale>
<asrwt>0</asrwt>
<pdfrwt beam="1">  1       21 0.27560564E-01 0.20966862E+03</pdfrwt>
<pdfrwt beam="2">  1       21 0.57924133E-01 0.20966862E+03</pdfrwt>
<totfact> 0.34783844E+04</totfact>
</mgrwt>
</event>
<event>
 6      1 +2.5196620e+02 2.10366900e+02 7.54677100e-03 1.16558800e-01
       21 -1    0    0  505  502 +0.0000000000e+00 +0.0000000000e+00 +4.9927428467e+02 4.9927428467e+02 0.0000000000e+00 0.0000e+00 1.0000e+00
       21 -1    0    0  504  503 -0.0000000000e+00 -0.0000000000e+00 -2.3751003959e+02 2.3751003959e+02 0.0000000000e+00 0.0000e+00 1.0000e+00
        6  1    1    2  501    0 -3.2104543821e+01 +1.0164090567e+02 -6.3463317845e+01 2.1288064297e+02 1.7300000000e+02 0.0000e+00 1.0000e+00
       -6  1    1    2    0  502 +8.0701141743e+00 -1.4686889727e+02 +4.9656700048e+01 2.3244437525e+02 1.7300000000e+02 0.0000e+00 1.0000e+00
       21  1    1    2  504  501 -1.6429043226e+00 +4.2281820730e+01 +5.5070415269e+01 6.9449277439e+01 0.0000000000e+00 0.0000e+00 -1.0000e+00
       21  1    1    2  505  503 +2.5677333970e+01 +2.9461708643e+00 +2.2050044761e+02 2.2201002860e+02 0.0000000000e+00 0.0000e+00 1.0000e+00
<mgrwt>
<rscale>  4 0.21036694E+03</rscale>
<asrwt>0</asrwt>
<pdfrwt beam="1">  1       21 0.76811428E-01 0.21036694E+03</pdfrwt>
<pdfrwt beam="2">  1       21 0.36540006E-01 0.21036694E+03</pdfrwt>
<totfact> 0.10757571E+04</totfact>
</mgrwt>
</event>
<event>
 6      1 +2.5196620e+02 2.55264500e+02 7.54677100e-03 1.06301000e-01
       21 -1    0    0  501  502 +0.0000000000e+00 +0.0000000000e+00 +2.0725231564e+03 2.0725231564e+03 0.0000000000e+00 0.0000e+00 -1.0000e+00
       21 -1    0    0  504  503 -0.0000000000e+00 -0.0000000000e+00 -6.2350660899e+02 6.2350660899e+02 0.0000000000e+00 0.0000e+00 1.0000e+00
        6  1    1    2  501    0 -1.4963795197e+02 -1.1096698246e+02 -4.3185659051e+02 5.0113301890e+02 1.7300000000e+02 0.0000e+00 1.0000e+00
       -6  1    1    2    0  503 +4.0898979348e+01 +2.3852963498e+01 -9.2659676727e+00 1.7960108167e+02 1.7300000000e+02 0.0000e+00 1.0000e+00
       21  1    1    2  504  505 -1.2078772218e+01 -5.6613220869e+01 -4.3595141146e+01 7.2467163923e+01 0.0000000000e+00 0.0000e+00 -1.0000e+00
       21  1    1    2  505  502 +1.2081774484e+02 +1.4372723983e+02 +1.9337342468e+03 1.9428285010e+03 0.0000000000e+00 0.0000e+00 -1.0000e+00
<mgrwt>
<rscale>  4 0.23323099E+03</rscale>
<asrwt>0</asrwt>
<pdfrwt beam="1">  1       21 0.31884971E+00 0.25526446E+03</pdfrwt>
<pdfrwt beam="2">  1       21 0.95924094E-01 0.25526446E+03</pdfrwt>
<totfact> 0.21727265E+01</totfact>
</mgrwt>
</event>
<event>
 6      1 +2.5196620e+02 1.96736200e+02 7.54677100e-03 1.06301000e-01
       21 -1    0    0  505  502 +0.0000000000e+00 +0.0000000000e+00 +1.6860539208e+03 1.6860539208e+03 0.0000000000e+00 0.0000e+00 1.0000e+00
       21 -1    0    0  504  503 -0.0000000000e+00 -0.0000000000e+00 -3.3045382596e+02 3.3045382596e+02 0.0000000000e+00 0.0000e+00 1.0000e+00
        6  1    1    2  501    0 -3.9523924045e+01 +8.8871881569e+01 +8.4970758393e+02 8.7257797938e+02 1.7300000000e+02 0.0000e+00 1.0000e+00
       -6  1    1    2    0  503 +1.9363922955e+02 -2.8642529661e+01 +6.8469233684e+00 2.6132819612e+02 1.7300000000e+02 0.0000e+00 1.0000e+00
       21  1    1    2  504  502 -1.0894375589e+02 +1.3548555607e+01 -1.7306407017e+02 2.0494749984e+02 0.0000000000e+00 0.0000e+00 1.0000e+00
       21  1    1    2  505  501 -4.5171549610e+01 -7.3777907514e+01 +6.7210965772e+02 6.7765407143e+02 0.0000000000e+00 0.0000e+00 1.0000e+00
<mgrwt>
<rscale>  4 0.19673623E+03</rscale>
<asrwt>0</asrwt>
<pdfrwt beam="1">  1       21 0.25939291E+00 0.19673623E+03</pdfrwt>
<pdfrwt beam="2">  1       21 0.50839051E-01 0.19673623E+03</pdfrwt>
<totfact> 0.21434299E+02</totfact>
</mgrwt>
</event>
<event>
 6      1 +2.5196620e+02 1.82726000e+02 7.54677100e-03 1.06301000e-01
       21 -1    0    0  505  502 +0.0000000000e+00 +0.0000000000e+00 +8.7641230531e+02 8.7641230531e+02 0.0000000000e+00 0.0000e+00 1.0000e+00
       21 -1    0    0  504  503 -0.0000000000e+00 -0.0000000000e+00 -2.8476130177e+02 2.8476130177e+02 0.0000000000e+00 0.0000e+00 -1.0000e+00
        6  1    1    2  501    0 +8.9875091189e+00 -1.2193103986e+01 +2.0104477418e+02 2.6566416456e+02 1.7300000000e+02 0.0000e+00 -1.0000e+00
       -6  1    1    2    0  503 -5.0710254635e+01 +9.7161359664e+01 -1.6157687639e+02 2.6086001365e+02 1.7300000000e+02 0.0000e+00 -1.0000e+00
       21  1    1    2  504  502 +1.2183506311e+01 -4.9344524879e+01 -2.4282663954e+01 5.6329101984e+01 0.0000000000e+00 0.0000e+00 -1.0000e+00
       21  1    1    2  505  501 +2.9539239205e+01 -3.5623730798e+01 +5.7646576971e+02 5.7832032689e+02 0.0000000000e+00 0.0000e+00 1.0000e+00
<mgrwt>
<rscale>  4 0.18272605E+03</rscale>
<asrwt>0</asrwt>
<pdfrwt beam="1">  1       21 0.13483266E+00 0.18272605E+03</pdfrwt>
<pdfrwt beam="2">  1       21 0.43809432E-01 0.18272605E+03</pdfrwt>
<totfact> 0.19917844E+03</totfact>
</mgrwt>
</event>
<event>
 6      1 +2.5196620e+02 1.96717100e+02 7.54677100e-03 1.14954000e-01
       21 -1    0    0  501  502 +0.0000000000e+00 +0.0000000000e+00 +1.9887015357e+02 1.9887015357e+02 0.0000000000e+00 0.0000e+00 -1.0000e+00
       21 -1    0    0  504  503 -0.0000000000e+00 -0.0000000000e+00 -1.1953665562e+03 1.1953665562e+03 0.0000000000e+00 0.0000e+00 -1.0000e+00
        6  1    1    2  501    0 +4.0196200750e+01 -1.2771195515e+02 -4.7982635282e+02 5.2734088302e+02 1.7300000000e+02 0.0000e+00 -1.0000e+00
       -6  1    1    2    0  503 -1.3095909642e+01 +7.0940764457e+01 -6.7058627507e+02 6.9628948521e+02 1.7300000000e+02 0.0000e+00 -1.0000e+00
       21  1    1    2  504  505 -2.0199092169e+01 +3.5842380816e+01 +5.1858918096e+01 6.6196880388e+01 0.0000000000e+00 0.0000e+00 -1.0000e+00
       21  1    1    2  505  502 -6.9011989396e+00 +2.0928809875e+01 +1.0205730717e+02 1.0440946114e+02 0.0000000000e+00 0.0000e+00 -1.0000e+00
<mgrwt>
<rscale>  4 0.19671710E+03</rscale>
<asrwt>0</asrwt>
<pdfrwt beam="1">  1       21 0.30595409E-01 0.19671710E+03</pdfrwt>
<pdfrwt beam="2">  1       21 0.18390255E+00 0.19671710E+03</pdfrwt>
<totfact> 0.17487884E+03</totfact>
</mgrwt>
</event>
<event>
 6      1 +2.5196620e+02 1.89399400e+02 7.54677100e-03 1.16268000e-01
       21 -1    0    0  501  502 +0.0000000000e+00 +0.0000000000e+00 +1.7799700456e+02 1.7799700456e+02 0.0000000000e+00 0.0000e+00 1.0000e+00
       21 -1    0    0  505  503 -0.0000000000e+00 -0.0000000000e+00 -8.7584687730e+02 8.7584687730e+02 0.0000000000e+00 0.0000e+00 -1.0000e+00
        6  1    1    2  501    0 +5.9810732139e+01 +1.0543286783e+02 -3.5651878788e+02 4.1440084389e+02 1.7300000000e+02 0.0000e+00 -1.0000e+00
       -6  1    1    2    0  503 -6.8007454138e+01 +6.4194374479e+00 -3.6458840103e+02 4.0929198033e+02 1.7300000000e+02 0.0000e+00 1.0000e+00
       21  1    1    2  504  502 +1.5769537828e+01 -2.5283580310e+01 +1.0603104062e+02 1.1013863687e+02 0.0000000000e+00 0.0000e+00 1.0000e+00
       21  1    1    2  505  504 -7.5728158291e+00 -8.6568724969e+01 -8.2773724449e+01 1.2001242078e+02 0.0000000000e+00 0.0000e+00 -1.0000e+00
<mgrwt>
<rscale>  4 0.18939936E+03</rscale>
<asrwt>0</asrwt>
<pdfrwt beam="1">  1       21 0.27384155E-01 0.18939936E+03</pdfrwt>
<pdfrwt beam="2">  1       21 0.13474567E+00 0.18939936E+03</pdfrwt>
<totfact> 0.50338224E+03</totfact>
</mgrwt>
</event>
<event>
 6      1 +2.5196620e+02 2.07779400e+02 7.54677100e-03 1.06301000e-01
       21 -1    0    0  505  502 +0.0000000000e+00 +0.0000000000e+00 +8.5180485090e+01 8.5180485090e+01 0.0000000000e+00 0.0000e+00 1.0000e+00
       21 -1    0    0  504  503 -0.0000000000e+00 -0.0000000000e+00 -9.7974164828e+02 9.7974164828e+02 0.0000000000e+00 0.0000e+00 1.0000e+00
        6  1    1    2  501    0 +4.8562626665e+01 -6.8239613315e+01 -4.3069276431e+02 4.7163569709e+02 1.7300000000e+02 0.0000e+00 1.0000e+00
       -6  1    1    2    0  502 -4.5812919817e+01 +1.4482932221e+02 -2.1203709037e+02 3.1299054920e+02 1.7300000000e+02 0.0000e+00 1.0000e+00
       21  1    1    2  504  501 +3.1988820040e+01 -2.4434711782e+01 -1.8230715022e+02 1.8669825058e+02 0.0000000000e+00 0.0000e+00 -1.0000e+00
       21  1    1    2  505  503 -3.4738526887e+01 -5.2154997117e+01 -6.9524158289e+01 9.3597636511e+01 0.0000000000e+00 0.0000e+00 -1.0000e+00
<mgrwt>
<rscale>  4 0.20777939E+03</rscale>
<asrwt>0</asrwt>
<pdfrwt beam="1">  1       21 0.13104691E-01 0.20777939E+03</pdfrwt>
<pdfrwt beam="2">  1       21 0.15072948E+00 0.20777939E+03</pdfrwt>
<totfact> 0.14628425E+04</totfact>
</mgrwt>
</event>
<event>
 6      1 +2.5196620e+02 1.91453700e+02 7.54677100e-03 1.16321900e-01
       21 -1    0    0  505  502 +0.0000000000e+00 +0.0000000000e+00 +1.6094731218e+02 1.6094731218e+02 0.0000000000e+00 0.0000e+00 1.0000e+00
       21 -1    0    0  504  503 -0.0000000000e+00 -0.0000000000e+00 -5.2752101338e+02 5.2752101338e+02 0.0000000000e+00 0.0000e+00 1.0000e+00
        6  1    1    2  501    0 -4.3450117998e-01 +3.7843114327e+01 -1.7477014105e+02 2.4880894738e+02 1.7300000000e+02 0.0000e+00 1.0000e+00
       -6  1    1    2    0  502 -1.3243126520e+01 -9.8902765168e+01 +3.3290785218e+01 2.0247077255e+02 1.7300000000e+02 0.0000e+00 1.0000e+00
       21  1    1    2  504  501 +8.1723988160e+00 +2.2730136559e+01 -3.1158110106e+01 3.9424294994e+01 0.0000000000e+00 0.0000e+00 1.0000e+00
       21  1    1    2  505  503 +5.5052288836e+00 +3.8329514282e+01 -1.9393623526e+02 1.9776431063e+02 0.0000000000e+00 0.0000e+00 1.0000e+00
<mgrwt>
<rscale>  4 0.19145367E+03</rscale>
<asrwt>0</asrwt>
<pdfrwt beam="1">  1       21 0.24761124E-01 0.19145367E+03</pdfrwt>
<pdfrwt beam="2">  1       21 0.81157080E-01 0.19145367E+03</pdfrwt>
<totfact> 0.20554414E+04</totfact>
</mgrwt>
</event>
<event>
 6      1 +2.5196620e+02 2.63250500e+02 7.54677100e-03 1.16321900e-01
       21 -1    0    0  504  502 +0.0000000000e+00 +0.0000000000e+00 +3.2679782974e+02 3.2679782974e+02 0.0000000000e+00 0.0000e+00 1.0000e+00
       21 -1    0    0  505  503 -0.0000000000e+00 -0.0000000000e+00 -7.0249195984e+02 7.0249195984e+02 0.0000000000e+00 0.0000e+00 1.0000e+00
        6  1    1    2  501    0 -1.4950647395e+02 -2.1325772000e+02 -2.2244123935e+01 3.1345628394e+02 1.7300000000e+02 0.0000e+00 1.0000e+00
       -6  1    1    2    0  502 +1.0746140992e+02 +1.2920585933e+02 +9.2653254904e+01 2.5837131101e+02 1.7300000000e+02 0.0000e+00 1.0000e+00
       21  1    1    2  504  503 +2.0543153391e+01 +5.7148026358e+01 -3.5315596476e+02 3.5833929943e+02 0.0000000000e+00 0.0000e+00 1.0000e+00
       21  1    1    2  505  501 +2.1501910647e+01 +2.6903834315e+01 -9.2947296315e+01 9.9122895209e+01 0.0000000000e+00 0.0000e+00 1.0000e+00
<mgrwt>
<rscale>  4 0.26325051E+03</rscale>
<asrwt>0</asrwt>
<pdfrwt beam="1">  1       21 0.50276589E-01 0.26325051E+03</pdfrwt>
<pdfrwt beam="2">  1       21 0.10807569E+00 0.26325051E+03</pdfrwt>
<totfact> 0.24305477E+03</totfact>
</mgrwt>
</event>
<event>
 6      1 +2.5196620e+02 1.92631900e+02 7.54677100e-03 1.06301000e-01
       21 -1    0    0  505  502 +0.0000000000e+00 +0.0000000000e+00 +1.0405786169e+02 1.0405786169e+02 0.0000000000e+00 0.0000e+00 -1.0000e+00
       21 -1    0    0  501  503 -0.0000000000e+00 -0.0000000000e+00 -6.6336603273e+02 6.6336603273e+02 0.0000000000e+00 0.0000e+00 -1.0000e+00
        6  1    1    2  501    0 -9.0712403669e+01 +7.1033098725e+00 -3.3275202263e+02 3.8591722656e+02 1.7300000000e+02 0.0000e+00 -1.0000e+00
       -6  1    1    2    0  502 +8.3516319059e+01 -8.4010444908e+00 -1.4464016565e+02 2.4061448547e+02 1.7300000000e+02 0.0000e+00 -1.0000e+00
       21  1    1    2  504  503 +1.6257715415e+01 +2.5302519170e+01 -1.0323884792e+02 1.0753041666e+02 0.0000000000e+00 0.0000e+00 1.0000e+00
       21  1    1    2  505  504 -9.0616308045e+00 -2.4004784551e+01 +2.1322865164e+01 3.3361765736e+01 0.0000000000e+00 0.0000e+00 -1.0000e+00
<mgrwt>
<rscale>  4 0.19263187E+03</rscale>
<asrwt>0</asrwt>
<pdfrwt beam="1">  1       21 0.16008902E-01 0.19263187E+03</pdfrwt>
<pdfrwt beam="2">  1       21 0.10205631E+00 0.19263187E+03</pdfrwt>
<totfact> 0.27244417E+04</totfact>
</mgrwt>
</event>
<event>
 6      1 +2.5196620e+02 1.93035400e+02 7.54677100e-03 9.49153200e-02
       21 -1    0    0  503  502 +0.0000000000e+00 +0.0000000000e+00 +5.9592454102e+02 5.9592454102e+02 0.0000000000e+00 0.0000e+00 1.0000e+00
       21 -1    0    0  504  503 -0.0000000000e+00 -0.0000000000e+00 -1.9127844969e+02 1.9127844969e+02 0.0000000000e+00 0.0000e+00 1.0000e+00
        6  1    1    2  501    0 +8.8973607026e+01 +8.2315959324e+00 +4.3798639978e+01 1.9957801177e+02 1.7300000000e+02 0.0000e+00 1.0000e+00
       -6  1    1    2    0  505 -6.8884867720e+01 -8.1194256480e+01 +1.4757109779e+02 2.5108536634e+02 1.7300000000e+02 0.0000e+00 1.0000e+00
       21  1    1    2  504  501 -3.3929266090e+01 +3.4572148519e+01 -5.0294541585e+01 6.9828142348e+01 0.0000000000e+00 0.0000e+00 1.0000e+00
       21  1    1    2  505  502 +1.3840526784e+01 +3.8390512028e+01 +2.6357089514e+02 2.6671147025e+02 0.0000000000e+00 0.0000e+00 1.0000e+00
<mgrwt>
<rscale>  4 0.19303539E+03</rscale>
<asrwt>0</asrwt>
<pdfrwt beam="1">  1       21 0.91680698E-01 0.19303539E+03</pdfrwt>
<pdfrwt beam="2">  1       21 0.29427454E-01 0.19303539E+03</pdfrwt>
<totfact> 0.11132901E+04</totfact>
</mgrwt>
</event>
<event>
 6      1 +2.5196620e+02 2.02225900e+02 7.54677100e-03 9.28652600e-02
       21 -1    0    0  505  502 +0.0000000000e+00 +0.0000000000e+00 +2.0294461119e+02 2.0294461119e+02 0.0000000000e+00 0.0000e+00 1.0000e+00
       21 -1    0    0  504  503 -0.0000000000e+00 -0.0000000000e+00 -3.8201778662e+02 3.8201778662e+02 0.0000000000e+00 0.0000e+00 1.0000e+00
        6  1    1    2  501    0 -4.3907331888e+01 +7.1544715681e+01 -5.6508642489e-01 1.9229097602e+02 1.7300000000e+02 0.0000e+00 1.0000e+00
       -6  1    1    2    0  502 +1.0610084961e+02 -8.2832038178e+01 -2.2103316627e+01 2.2030908615e+02 1.7300000000e+02 0.0000e+00 1.0000e+00
       21  1    1    2  504  501 -3.2083056804e+01 +2.3247739070e+01 -9.5089325462e+01 1.0301339584e+02 0.0000000000e+00 0.0000e+00 1.0000e+00
       21  1    1    2  505  503 -3.0110460916e+01 -1.1960416573e+01 -6.1315446913e+01 6.9348939800e+01 0.0000000000e+00 0.0000e+00 1.0000e+00
<mgrwt>
<rscale>  4 0.20222591E+03</rscale>
<asrwt>0</asrwt>
<pdfrwt beam="1">  1       21 0.31222248E-01 0.20222591E+03</pdfrwt>
<pdfrwt beam="2">  1       21 0.58771967E-01 0.20222591E+03</pdfrwt>
<totfact> 0.26553069E+04</totfact>
</mgrwt>
</event>
<event>
 6      1 +2.5196620e+02 1.92420200e+02 7.54677100e-03 1.09711200e-01
       21 -1    0    0  505  502 +0.0000000000e+00 +0.0000000000e+00 +1.9025695320e+02 1.9025695320e+02 0.0000000000e+00 0.0000e+00 1.0000e+00
       21 -1    0    0  504  503 -0.0000000000e+00 -0.0000000000e+00 -7.1372514332e+02 7.1372514332e+02 0.0000000000e+00 0.0000e+00 1.0000e+00
        6  1    1    2  501    0 -6.3363637035e+01 +8.0594406766e+01 -2.0647028257e+01 2.0215268654e+02 1.7300000000e+02 0.0000e+00 1.0000e+00
       -6  1    1    2    0  503 +6.2922719367e+01 -5.1686166518e+01 -5.6830700413e+02 5.9961035629e+02 1.7300000000e+02 0.0000e+00 1.0000e+00
       21  1    1    2  504  502 -2.7065908532e+01 +1.9146673857e+00 +2.9827443321e+00 2.7296998363e+01 0.0000000000e+00 0.0000e+00 1.0000e+00
       21  1    1    2  505  501 +2.7506826199e+01 -3.0822907634e+01 +6.2503097935e+01 7.4922055324e+01 0.0000000000e+00 0.0000e+00 -1.0000e+00
<mgrwt>
<rscale>  4 0.19242023E+03</rscale>
<asrwt>0</asrwt>
<pdfrwt beam="1">  1       21 0.29270300E-01 0.19242023E+03</pdfrwt>
<pdfrwt beam="2">  1       21 0.10980387E+00 0.19242023E+03</pdfrwt>
<totfact> 0.73345548E+03</totfact>
</mgrwt>
</event>
<event>
 6      1 +2.5196620e+02 1.73102500e+02 7.54677100e-03 1.12691600e-01
       21 -1    0    0  501  502 +0.0000000000e+00 +0.0000000000e+00 +4.8707455791e+02 4.8707455791e+02 0.0000000000e+00 0.0000e+00 -1.0000e+00
       21 -1    0    0  504  503 -0.0000000000e+00 -0.0000000000e+00 -3.4088323597e+02 3.4088323597e+02 0.0000000000e+00 0.0000e+00 -1.0000e+00
        6  1    1    2  501    0 +1.1410010605e+02 -4.7555985009e+01 +1.4012387904e+02 2.5464506158e+02 1.7300000000e+02 0.0000e+00 -1.0000e+00
       -6  1    1    2    0  503 +1.9850321443e+01 -1.4278114750e+01 -2.1120348895e+02 2.7410547891e+02 1.7300000000e+02 0.0000e+00 -1.0000e+00
       21  1    1    2  504  505 -1.2394216425e+02 +6.4311323406e-01 +7.7184011719e+01 1.4601179863e+02 0.0000000000e+00 0.0000e+00 -1.0000e+00
       21  1    1    2  505  502 -1.0008263242e+01 +6.1190986525e+01 +1.4008692014e+02 1.5319545476e+02 0.0000000000e+00 0.0000e+00 1.0000e+00
<mgrwt>
<rscale>  4 0.17310251E+03</rscale>
<asrwt>0</asrwt>
<pdfrwt beam="1">  1       21 0.74934547E-01 0.17310251E+03</pdfrwt>
<pdfrwt beam="2">  1       21 0.52443575E-01 0.17310251E+03</pdfrwt>
<totfact> 0.55789482E+03</totfact>
</mgrwt>
</event>
<event>
 6      1 +2.5196620e+02 2.15593800e+02 7.54677100e-03 1.13287100e-01
       21 -1    0    0  504  502 +0.0000000000e+00 +0.0000000000e+00 +7.0081312826e+02 7.0081312826e+02 0.0000000000e+00 0.0000e+00 1.0000e+00
       21 -1    0    0  505  503 -0.0000000000e+00 -0.0000000000e+00 -5.2112379058e+02 5.2112379058e+02 0.0000000000e+00 0.0000e+00 1.0000e+00
        6  1    1    2  501    0 +1.2379977420e+02 +1.0813918458e+02 +2.2618111487e+02 3.2879684314e+02 1.7300000000e+02 0.0000e+00 -1.0000e+00
       -6  1    1    2    0  503 -3.8611910662e+01 -1.0429818059e+02 -2.0840909377e+02 2.9280085465e+02 1.7300000000e+02 0.0000e+00 1.0000e+00
       21  1    1    2  504  501 +1.5447346096e+02 -1.9964457816e+01 -1.4349748645e+02 2.1178328153e+02 0.0000000000e+00 0.0000e+00 1.0000e+00
       21  1    1    2  505  502 -2.3966132450e+02 +1.6123453825e+01 +3.0541480303e+02 3.8855593952e+02 0.0000000000e+00 0.0000e+00 -1.0000e+00
<mgrwt>
<rscale>  4 0.21275255E+03</rscale>
<asrwt>0</asrwt>
<pdfrwt beam="1">  1       21 0.10781740E+00 0.21559382E+03</pdfrwt>
<pdfrwt beam="2">  1       21 0.80172891E-01 0.21559382E+03</pdfrwt>
<totfact> 0.91721595E+02</totfact>
</mgrwt>
</event>
<event>
 6      1 +2.5196620e+02 1.86958400e+02 7.54677100e-03 1.06301000e-01
       21 -1    0    0  501  502 +0.0000000000e+00 +0.0000000000e+00 +6.6568458519e+02 6.6568458519e+02 0.0000000000e+00 0.0000e+00 1.0000e+00
       21 -1    0    0  505  503 -0.0000000000e+00 -0.0000000000e+00 -1.0287207697e+02 1.0287207697e+02 0.0000000000e+00 0.0000e+00 1.0000e+00
        6  1    1    2  501    0 -3.7896385070e+01 -6.6851081913e+01 +3.0202562291e+02 3.5644590059e+02 1.7300000000e+02 0.0000e+00 1.0000e+00
       -6  1    1    2    0  504 +3.0775399759e+00 +6.6413309607e+01 +2.4196702940e+02 3.0479048913e+02 1.7300000000e+02 0.0000e+00 1.0000e+00
       21  1    1    2  504  503 +2.4619520045e+01 +1.8858757899e+01 -3.6637096389e+01 4.8000524462e+01 0.0000000000e+00 0.0000e+00 1.0000e+00
       21  1    1    2  505  502 +1.0199325049e+01 -1.8420985593e+01 +5.5456952304e+01 5.9319747981e+01 0.0000000000e+00 0.0000e+00 1.0000e+00
<mgrwt>
<rscale>  4 0.18695842E+03</rscale>
<asrwt>0</asrwt>
<pdfrwt beam="1">  1       21 0.10241301E+00 0.18695842E+03</pdfrwt>
<pdfrwt beam="2">  1       21 0.15826474E-01 0.18695842E+03</pdfrwt>
<totfact> 0.27679226E+04</totfact>
</mgrwt>
</event>
<event>
 6      1 +2.5196620e+02 2.80133200e+02 7.54677100e-03 1.16558800e-01
       21 -1    0    0  503  502 +0.0000000000e+00 +0.0000000000e+00 +3.0280368845e+02 3.0280368845e+02 0.0000000000e+00 0.0000e+00 1.0000e+00
       21 -1    0    0  504  503 -0.0000000000e+00 -0.0000000000e+00 -4.7292513120e+02 4.7292513120e+02 0.0000000000e+00 0.0000e+00 1.0000e+00
        6  1    1    2  501    0 +3.3285324953e+01 +2.1631210276e+02 -3.5388181182e+01 2.8121195214e+02 1.7300000000e+02 0.0000e+00 1.0000e+00
       -6  1    1    2    0  505 -1.5686824798e+01 -2.2084078501e+02 -2.2581183188e+02 3.6046735249e+02 1.7300000000e+02 0.0000e+00 1.0000e+00
       21  1    1    2  504  501 +1.2184864660e+01 +3.2661384117e+01 +7.5475160041e-01 3.4868418221e+01 0.0000000000e+00 0.0000e+00 -1.0000e+00
       21  1    1    2  505  502 -2.9783364815e+01 -2.8132701871e+01 +9.0323818718e+01 9.9181096798e+01 0.0000000000e+00 0.0000e+00 1.0000e+00
<mgrwt>
<rscale>  4 0.28013316E+03</rscale>
<asrwt>0</asrwt>
<pdfrwt beam="1">  1       21 0.46585183E-01 0.28013316E+03</pdfrwt>
<pdfrwt beam="2">  1       21 0.72757712E-01 0.28013316E+03</pdfrwt>
<totfact> 0.71082504E+03</totfact>
</mgrwt>
</event>
<event>
 6      1 +2.5196620e+02 1.88700500e+02 7.54677100e-03 1.11396600e-01
       21 -1    0    0  503  502 +0.0000000000e+00 +0.0000000000e+00 +2.1957626228e+02 2.1957626228e+02 0.0000000000e+00 0.0000e+00 1.0000e+00
       21 -1    0    0  501  503 -0.0000000000e+00 -0.0000000000e+00 -3.8783791119e+02 3.8783791119e+02 0.0000000000e+00 0.0000e+00 -1.0000e+00
        6  1    1    2  501    0 +1.0926232836e+02 -2.0097648295e+01 -1.6334585906e+02 2.6258911162e+02 1.7300000000e+02 0.0000e+00 -1.0000e+00
       -6  1    1    2    0  504 -2.3256462219e+01 +4.8023641436e+01 -1.0417882997e+02 2.0887642707e+02 1.7300000000e+02 0.0000e+00 -1.0000e+00
       21  1    1    2  504  505 -3.4851335970e+01 -1.7245765537e+01 +5.5614038018e+01 6.7859806016e+01 0.0000000000e+00 0.0000e+00 1.0000e+00
       21  1    1    2  505  502 -5.1154530174e+01 -1.0680227604e+01 +4.3649002098e+01 6.8088828770e+01 0.0000000000e+00 0.0000e+00 1.0000e+00
<mgrwt>
<rscale>  4 0.18870047E+03</rscale>
<asrwt>0</asrwt>
<pdfrwt beam="1">  1       21 0.33780964E-01 0.18870047E+03</pdfrwt>
<pdfrwt beam="2">  1       21 0.59667370E-01 0.18870047E+03</pdfrwt>
<totfact> 0.22187855E+04</totfact>
</mgrwt>
</event>
<event>
 6      1 +2.5196620e+02 2.01408600e+02 7.54677100e-03 1.13287100e-01
       21 -1    0    0  504  502 +0.0000000000e+00 +0.0000000000e+00 +3.8538621299e+02 3.8538621299e+02 0.0000000000e+00 0.0000e+00 -1.0000e+00
       21 -1    0    0  505  503 -0.0000000000e+00 -0.0000000000e+00 -1.6609811437e+02 1.6609811437e+02 0.0000000000e+00 0.0000e+00 1.0000e+00
        6  1    1    2  501    0 +6.9933525521e+01 -6.4886242896e+01 +1.7826850439e+02 2.6610069929e+02 1.7300000000e+02 0.0000e+00 -1.0000e+00
       -6  1    1    2    0  503 -9.5574011615e+01 +2.8832780825e+01 +8.5789703410e+00 1.9992078351e+02 1.7300000000e+02 0.0000e+00 1.0000e+00
       21  1    1    2  504  501 +2.6254217949e+01 -1.2795450752e+01 +1.8827485158e+01 3.4748837642e+01 0.0000000000e+00 0.0000e+00 1.0000e+00
       21  1    1    2  505  502 -6.1373185525e-01 +4.8848912824e+01 +1.3613138735e+01 5.0714006912e+01 0.0000000000e+00 0.0000e+00 1.0000e+00
<mgrwt>
<rscale>  4 0.20140861E+03</rscale>
<asrwt>0</asrwt>
<pdfrwt beam="1">  1       21 0.59290186E-01 0.20140861E+03</pdfrwt>
<pdfrwt beam="2">  1       21 0.25553556E-01 0.20140861E+03</pdfrwt>
<totfact> 0.38436041E+04</totfact>
</mgrwt>
</event>
<event>
 6      1 +2.5196620e+02 1.89974500e+02 7.54677100e-03 9.49153200e-02
       21 -1    0    0  505  502 +0.0000000000e+00 +0.0000000000e+00 +6.4858706655e+02 6.4858706655e+02 0.0000000000e+00 0.0000e+00 1.0000e+00
       21 -1    0    0  501  503 -0.0000000000e+00 -0.0000000000e+00 -4.3050051094e+02 4.3050051094e+02 0.0000000000e+00 0.0000e+00 1.0000e+00
        6  1    1    2  501    0 -4.8307106136e+01 +6.8816185762e+01 -3.3016539760e+02 3.8210919081e+02 1.7300000000e+02 0.0000e+00 1.0000e+00
       -6  1    1    2    0  502 +8.6700801688e+01 +3.0002798554e+01 +1.8060575470e+02 2.6639188345e+02 1.7300000000e+02 0.0000e+00 1.0000e+00
       21  1    1    2  504  503 -5.1105262762e+01 -4.0455167158e+01 +7.6022606770e+00 6.5621359321e+01 0.0000000000e+00 0.0000e+00 1.0000e+00
       21  1    1    2  505  504 +1.2711567210e+01 -5.8363817158e+01 +3.6004393784e+02 3.6496514391e+02 0.0000000000e+00 0.0000e+00 1.0000e+00
<mgrwt>
<rscale>  4 0.18997446E+03</rscale>
<asrwt>0</asrwt>
<pdfrwt beam="1">  1       21 0.99782626E-01 0.18997446E+03</pdfrwt>
<pdfrwt beam="2">  1       21 0.66230848E-01 0.18997446E+03</pdfrwt>
<totfact> 0.17308745E+03</totfact>
</mgrwt>
</event>
<event>
 6      1 +2.5196620e+02 3.06586100e+02 7.54677100e-03 1.09079000e-01
       21 -1    0    0  503  502 +0.0000000000e+00 +0.0000000000e+00 +1.6040349608e+02 1.6040349608e+02 0.0000000000e+00 0.0000e+00 1.0000e+00
       21 -1    0    0  501  503 -0.0000000000e+00 -0.0000000000e+00 -1.0590323252e+03 1.0590323252e+03 0.0000000000e+00 0.0000e+00 -1.0000e+00
        6  1    1    2  501    0 +2.7460866066e+02 -1.2865069433e+01 -3.7066865249e+02 4.9284853298e+02 1.7300000000e+02 0.0000e+00 1.0000e+00
       -6  1    1    2    0  504 -2.2950070125e+02 -2.1341819940e+01 -5.4259729604e+02 6.1438332564e+02 1.7300000000e+02 0.0000e+00 -1.0000e+00
       21  1    1    2  504  505 -3.0365404576e+01 +5.4978412561e+00 -3.8923181872e+01 4.9671904942e+01 0.0000000000e+00 0.0000e+00 1.0000e+00
       21  1    1    2  505  502 -1.4742554827e+01 +2.8709048116e+01 +5.3560301290e+01 6.2532057706e+01 0.0000000000e+00 0.0000e+00 1.0000e+00
<mgrwt>
<rscale>  4 0.30658612E+03</rscale>
<asrwt>0</asrwt>
<pdfrwt beam="1">  1       21 0.24677461E-01 0.30658612E+03</pdfrwt>
<pdfrwt beam="2">  1       21 0.16292805E+00 0.30658612E+03</pdfrwt>
<totfact> 0.34263106E+03</totfact>
</mgrwt>
</event>
<event>
 6      1 +2.5196620e+02 1.81626800e+02 7.54677100e-03 9.49153200e-02
       21 -1    0    0  505  502 +0.0000000000e+00 +0.0000000000e+00 +1.1005682430e+03 1.1005682430e+03 0.0000000000e+00 0.0000e+00 -1.0000e+00
       21 -1    0    0  501  503 -0.0000000000e+00 -0.0000000000e+00 -1.7432879486e+02 1.7432879486e+02 0.0000000000e+00 0.0000e+00 -1.0000e+00
        6  1    1    2  501    0 -4.6509446245e+00 -1.3450172526e+01 +2.3386575671e+02 2.9124685507e+02 1.7300000000e+02 0.0000e+00 -1.0000e+00
       -6  1    1    2    0  502 +1.5966399150e+00 +3.8817105381e+01 -3.8179534727e+01 1.8137252769e+02 1.7300000000e+02 0.0000e+00 -1.0000e+00
       21  1    1    2  504  503 +2.9105645253e+01 +3.9180106057e+01 -1.6854170484e+01 5.1636056772e+01 0.0000000000e+00 0.0000e+00 -1.0000e+00
       21  1    1    2  505  504 -2.6051340544e+01 -6.4547038912e+01 +7.4740739661e+02 7.5064159829e+02 0.0000000000e+00 0.0000e+00 -1.0000e+00
<mgrwt>
<rscale>  4 0.18162678E+03</rscale>
<asrwt>0</asrwt>
<pdfrwt beam="1">  1       21 0.16931819E+00 0.18162678E+03</pdfrwt>
<pdfrwt beam="2">  1       21 0.26819815E-01 0.18162678E+03</pdfrwt>
<totfact> 0.28866945E+03</totfact>
</mgrwt>
</event>
<event>
 6      1 +2.5196620e+02 3.16142800e+02 7.54677100e-03 1.06301000e-01
       21 -1    0    0  505  502 +0.0000000000e+00 +0.0000000000e+00 +6.4298599082e+02 6.4298599082e+02 0.0000000000e+00 0.0000e+00 -1.0000e+00
       21 -1    0    0  504  503 -0.0000000000e+00 -0.0000000000e+00 -4.8233176775e+02 4.8233176775e+02 0.0000000000e+00 0.0000e+00 -1.0000e+00
        6  1    1    2  501    0 -8.4230123995e+01 -4.8678401604e+01 -2.1415497118e+02 2.9198570556e+02 1.7300000000e+02 0.0000e+00 -1.0000e+00
       -6  1    1    2    0  502 +3.2426187890e+02 +6.0938778041e+01 +4.0343820526e+02 5.4913630934e+02 1.7300000000e+02 0.0000e+00 -1.0000e+00
       21  1    1    2  504  501 -1.9537275970e+02 -5.0728996940e+00 -8.3975629489e+01 2.1271613924e+02 0.0000000000e+00 0.0000e+00 -1.0000e+00
       21  1    1    2  505  503 -4.4658995204e+01 -7.1874767429e+00 +5.5346618469e+01 7.1479604437e+01 0.0000000000e+00 0.0000e+00 -1.0000e+00
<mgrwt>
<rscale>  4 0.28190868E+03</rscale>
<asrwt>0</asrwt>
<pdfrwt beam="1">  1       21 0.98920922E-01 0.31614284E+03</pdfrwt>
<pdfrwt beam="2">  1       21 0.74204887E-01 0.31614284E+03</pdfrwt>
<totfact> 0.12486162E+03</totfact>
</mgrwt>
</event>
<event>
 6      1 +2.5196620e+02 1.83165100e+02 7.54677100e-03 9.49153200e-02
       21 -1    0    0  503  502 +0.0000000000e+00 +0.0000000000e+00 +8.1039711294e+02 8.1039711294e+02 0.0000000000e+00 0.0000e+00 -1.0000e+00
       21 -1    0    0  504  503 -0.0000000000e+00 -0.0000000000e+00 -1.7110383475e+02 1.7110383475e+02 0.0000000000e+00 0.0000e+00 -1.0000e+00
        6  1    1    2  501    0 +5.0816836029e+01 +2.9305741965e+01 +6.7534360540e+02 6.9961358098e+02 1.7300000000e+02 0.0000e+00 -1.0000e+00
       -6  1    1    2    0  505 -6.9162037859e+01 +9.2946828551e+00 -3.0255957132e+01 1.8898201383e+02 1.7300000000e+02 0.0000e+00 -1.0000e+00
       21  1    1    2  504  501 +9.8931093659e+00 -1.7682856276e+01 -4.4053444033e+01 4.8489823161e+01 0.0000000000e+00 0.0000e+00 -1.0000e+00
       21  1    1    2  505  502 +8.4520924649e+00 -2.0917568543e+01 +3.8259073953e+01 4.4415529723e+01 0.0000000000e+00 0.0000e+00 -1.0000e+00
<mgrwt>
<rscale>  4 0.18316512E+03</rscale>
<asrwt>0</asrwt>
<pdfrwt beam="1">  1       21 0.12467648E+00 0.18316512E+03</pdfrwt>
<pdfrwt beam="2">  1       21 0.26323667E-01 0.18316512E+03</pdfrwt>
<totfact> 0.66377005E+03</totfact>
</mgrwt>
</event>
<event>
 6      1 +2.5196620e+02 2.27458000e+02 7.54677100e-03 9.49153200e-02
       21 -1    0    0  505  502 +0.0000000000e+00 +0.0000000000e+00 +9.0104304483e+02 9.0104304483e+02 0.0000000000e+00 0.0000e+00 1.0000e+00
       21 -1    0    0  501  503 -0.0000000000e+00 -0.0000000000e+00 -1.6464190400e+03 1.6464190400e+03 0.0000000000e+00 0.0000e+00 -1.0000e+00
        6  1    1    2  501    0 +1.2842568626e+02 +7.1728824639e+00 -7.7408631083e+02 8.0354416416e+02 1.7300000000e+02 0.0000e+00 -1.0000e+00
       -6  1    1    2    0  502 -1.7484857629e+02 +8.2986520536e+01 -6.3401175923e+02 6.8509758288e+02 1.7300000000e+02 0.0000e+00 -1.0000e+00
       21  1    1    2  504  503 +2.4403439061e+01 -7.1293425499e+01 -1.9062619363e+02 2.0497957472e+02 0.0000000000e+00 0.0000e+00 -1.0000e+00
       21  1    1    2  505  504 +2.2019450966e+01 -1.8865977501e+01 +8.5334826851e+02 8.5384076308e+02 0.0000000000e+00 0.0000e+00 1.0000e+00
<mgrwt>
<rscale>  4 0.22745799E+03</rscale>
<asrwt>0</asrwt>
<pdfrwt beam="1">  1       21 0.13862201E+00 0.22745799E+03</pdfrwt>
<pdfrwt beam="2">  1       21 0.25329524E+00 0.22745799E+03</pdfrwt>
<totfact> 0.22039660E+01</totfact>
</mgrwt>
</event>
<event>
 6      1 +2.5196620e+02 2.69531500e+02 7.54677100e-03 9.28652600e-02
       21 -1    0    0  504  502 +0.0000000000e+00 +0.0000000000e+00 +4.5890634729e+02 4.5890634729e+02 0.0000000000e+00 0.0000e+00 -1.0000e+00
       21 -1    0    0  505  503 -0.0000000000e+00 -0.0000000000e+00 -4.9564922975e+02 4.9564922975e+02 0.0000000000e+00 0.0000e+00 -1.0000e+00
        6  1    1    2  501    0 -1.1906641584e+02 -2.0624228588e+02 -1.2894155429e+02 3.2135279101e+02 1.7300000000e+02 0.0000e+00 1.0000e+00
       -6  1    1    2    0  502 +1.4417618032e+02 +1.4043875273e+02 +3.0185492640e+02 4.0193931237e+02 1.7300000000e+02 0.0000e+00 -1.0000e+00
       21  1    1    2  504  503 +9.0915634836e+00 +3.2825663992e+01 -2.9863156999e+01 4.5298883971e+01 0.0000000000e+00 0.0000e+00 1.0000e+00
       21  1    1    2  505  501 -3.4201327962e+01 +3.2977869161e+01 -1.7979309756e+02 1.8596458969e+02 0.0000000000e+00 0.0000e+00 -1.0000e+00
<mgrwt>
<rscale>  4 0.26953148E+03</rscale>
<asrwt>0</asrwt>
<pdfrwt beam="1">  1       21 0.70600976E-01 0.26953148E+03</pdfrwt>
<pdfrwt beam="2">  1       21 0.76253728E-01 0.26953148E+03</pdfrwt>
<totfact> 0.26305811E+03</totfact>
</mgrwt>
</event>
<event>
 6      1 +2.5196620e+02 1.74877800e+02 7.54677100e-03 1.16128000e-01
       21 -1    0    0  501  502 +0.0000000000e+00 +0.0000000000e+00 +1.6130249044e+03 1.6130249044e+03 0.0000000000e+00 0.0000e+00 1.0000e+00
       21 -1    0    0  504  503 -0.0000000000e+00 -0.0000000000e+00 -2.7746127571e+01 2.7746127571e+01 0.0000000000e+00 0.0000e+00 1.0000e+00
        6  1    1    2  501    0 -2.9056510611e+00 +5.4696992186e+01 +6.4710519215e+02 6.7206720904e+02 1.7300000000e+02 0.0000e+00 -1.0000e+00
       -6  1    1    2    0  503 +2.1472996333e+01 +6.2550771048e+00 +6.8970336097e+02 7.1142107201e+02 1.7300000000e+02 0.0000e+00 -1.0000e+00
       21  1    1    2  504  505 -2.9158920459e+00 -4.1350146679e+01 +1.4439249703e+02 1.5022493220e+02 0.0000000000e+00 0.0000e+00 -1.0000e+00
       21  1    1    2  505  502 -1.5651453226e+01 -1.9601922612e+01 +1.0407772665e+02 1.0705781869e+02 0.0000000000e+00 0.0000e+00 1.0000e+00
<mgrwt>
<rscale>  4 0.17487785E+03</rscale>
<asrwt>0</asrwt>
<pdfrwt beam="1">  1       21 0.24815760E+00 0.17487785E+03</pdfrwt>
<pdfrwt beam="2">  1       21 0.42686363E-02 0.17487785E+03</pdfrwt>
<totfact> 0.24328294E+04</totfact>
</mgrwt>
</event>
<event>
 6      1 +2.5196620e+02 1.83052200e+02 7.54677100e-03 1.14954000e-01
       21 -1    0    0  505  502 +0.0000000000e+00 +0.0000000000e+00 +7.5971878624e+02 7.5971878624e+02 0.0000000000e+00 0.0000e+00 -1.0000e+00
       21 -1    0    0  502  503 -0.0000000000e+00 -0.0000000000e+00 -4.1610028228e+02 4.1610028228e+02 0.0000000000e+00 0.0000e+00 -1.0000e+00
        6  1    1    2  501    0 -3.7411845445e+01 +4.6023583196e+01 -3.4410522533e+02 3.8968605632e+02 1.7300000000e+02 0.0000e+00 -1.0000e+00
       -6  1    1    2    0  503 +5.3672714560e+00 -7.6191037145e+01 +1.4778107684e+02 2.4000443416e+02 1.7300000000e+02 0.0000e+00 -1.0000e+00
       21  1    1    2  504  501 +2.0132526882e+01 -1.0808771573e+01 +5.8592284601e+01 6.2890412595e+01 0.0000000000e+00 0.0000e+00 1.0000e+00
       21  1    1    2  505  504 +1.1912047107e+01 +4.0976225522e+01 +4.8135036785e+02 4.8323816545e+02 0.0000000000e+00 0.0000e+00 -1.0000e+00
<mgrwt>
<rscale>  4 0.18305223E+03</rscale>
<asrwt>0</asrwt>
<pdfrwt beam="1">  1       21 0.11687981E+00 0.18305223E+03</pdfrwt>
<pdfrwt beam="2">  1       21 0.64015428E-01 0.18305223E+03</pdfrwt>
<totfact> 0.12818709E+03</totfact>
</mgrwt>
</event>
<event>
 6      1 +2.5196620e+02 2.00130500e+02 7.54677100e-03 1.09711200e-01
       21 -1    0    0  504  502 +0.0000000000e+00 +0.0000000000e+00 +6.0233494551e+01 6.0233494551e+01 0.0000000000e+00 0.0000e+00 -1.0000e+00
       21 -1    0    0  505  503 -0.0000000000e+00 -0.0000000000e+00 -1.4701238248e+03 1.4701238248e+03 0.0000000000e+00 0.0000e+00 -1.0000e+00
        6  1    1    2  501    0 -1.1757857146e+02 +2.2040573710e+01 -3.2694372991e+02 3.8875662037e+02 1.7300000000e+02 0.0000e+00 -1.0000e+00
       -6  1    1    2    0  503 +9.4989767139e+01 -4.3342050535e+00 -1.0270985249e+03 1.0458978063e+03 1.7300000000e+02 0.0000e+00 -1.0000e+00
       21  1    1    2  504  501 +9.6740763467e+00 -4.1317624078e+01 -1.1733782408e+01 4.4027439878e+01 0.0000000000e+00 0.0000e+00 -1.0000e+00
       21  1    1    2  505  502 +1.2914727974e+01 +2.3611255421e+01 -4.4114293019e+01 5.1675452874e+01 0.0000000000e+00 0.0000e+00 1.0000e+00
<mgrwt>
<rscale>  4 0.20013051E+03</rscale>
<asrwt>0</asrwt>
<pdfrwt beam="1">  1       21 0.92666913E-02 0.20013051E+03</pdfrwt>
<pdfrwt beam="2">  1       21 0.22617290E+00 0.20013051E+03</pdfrwt>
<totfact> 0.85018824E+03</totfact>
</mgrwt>
</event>
<event>
 6      1 +2.5196620e+02 1.96612100e+02 7.54677100e-03 1.16128000e-01
       21 -1    0    0  501  502 +0.0000000000e+00 +0.0000000000e+00 +2.8614916001e+02 2.8614916001e+02 0.0000000000e+00 0.0000e+00 -1.0000e+00
       21 -1    0    0  502  503 -0.0000000000e+00 -0.0000000000e+00 -9.7158442687e+02 9.7158442687e+02 0.0000000000e+00 0.0000e+00 -1.0000e+00
        6  1    1    2  501    0 +2.5779352221e+01 +4.7977797889e+01 -4.0880626255e+02 4.4723372457e+02 1.7300000000e+02 0.0000e+00 -1.0000e+00
       -6  1    1    2    0  505 -4.9307906253e+01 -8.3331056761e+01 +2.2546044831e+02 3.0022782748e+02 1.7300000000e+02 0.0000e+00 -1.0000e+00
       21  1    1    2  504  503 -2.6212744370e+01 +3.0130293819e+01 -2.6222163141e+02 2.6524540816e+02 0.0000000000e+00 0.0000e+00 -1.0000e+00
       21  1    1    2  505  504 +4.9741298401e+01 +5.2229650528e+00 -2.3986782120e+02 2.4502662667e+02 0.0000000000e+00 0.0000e+00 -1.0000e+00
<mgrwt>
<rscale>  4 0.19661209E+03</rscale>
<asrwt>0</asrwt>
<pdfrwt beam="1">  1       21 0.44022948E-01 0.19661209E+03</pdfrwt>
<pdfrwt beam="2">  1       21 0.14947453E+00 0.19661209E+03</pdfrwt>
<totfact> 0.14894883E+03</totfact>
</mgrwt>
</event>
<event>
 6      1 +2.5196620e+02 2.36496400e+02 7.54677100e-03 9.49153200e-02
       21 -1    0    0  504  502 +0.0000000000e+00 +0.0000000000e+00 +1.5634932315e+02 1.5634932315e+02 0.0000000000e+00 0.0000e+00 1.0000e+00
       21 -1    0    0  501  503 -0.0000000000e+00 -0.0000000000e+00 -1.0338210158e+03 1.0338210158e+03 0.0000000000e+00 0.0000e+00 -1.0000e+00
        6  1    1    2  501    0 -5.3288931599e+00 -4.0558172889e+01 -5.6083491314e+01 1.8640740460e+02 1.7300000000e+02 0.0000e+00 1.0000e+00
       -6  1    1    2    0  505 +7.5410915703e+01 -6.0272638311e+01 -4.8722115398e+02 5.2595917144e+02 1.7300000000e+02 0.0000e+00 -1.0000e+00
       21  1    1    2  504  503 +8.2892842570e+01 -2.4652332732e+01 -2.4680530568e+02 2.6151829720e+02 0.0000000000e+00 0.0000e+00 -1.0000e+00
       21  1    1    2  505  502 -1.5297486511e+02 +1.2548314393e+02 -8.7361741660e+01 2.1628546570e+02 0.0000000000e+00 0.0000e+00 1.0000e+00
<mgrwt>
<rscale>  4 0.22051538E+03</rscale>
<asrwt>0</asrwt>
<pdfrwt beam="1">  1       21 0.24053741E-01 0.23649642E+03</pdfrwt>
<pdfrwt beam="2">  1       21 0.15904939E+00 0.23649642E+03</pdfrwt>
<totfact> 0.40227723E+03</totfact>
</mgrwt>
</event>
<event>
 6      1 +2.5196620e+02 4.31497800e+02 7.54677100e-03 9.49153200e-02
       21 -1    0    0  505  502 +0.0000000000e+00 +0.0000000000e+00 +4.7555631664e+02 4.7555631664e+02 0.0000000000e+00 0.0000e+00 1.0000e+00
       21 -1    0    0  504  503 -0.0000000000e+00 -0.0000000000e+00 -6.3090555086e+02 6.3090555086e+02 0.0000000000e+00 0.0000e+00 -1.0000e+00
        6  1    1    2  501    0 +3.1328238968e+02 +1.8807965777e+02 -1.5933652391e+02 4.3455372649e+02 1.7300000000e+02 0.0000e+00 -1.0000e+00
       -6  1    1    2    0  502 -3.7343093132e+02 -2.4220226687e+02 +5.8957831399e+01 4.8116278371e+02 1.7300000000e+02 0.0000e+00 1.0000e+00
       21  1    1    2  504  501 +2.6672359898e+01 -2.5612655593e+01 -9.0108978535e+01 9.7401493426e+01 0.0000000000e+00 0.0000e+00 -1.0000e+00
       21  1    1    2  505  503 +3.3476181745e+01 +7.9735264701e+01 +3.5138436832e+01 9.3343863880e+01 0.0000000000e+00 0.0000e+00 -1.0000e+00
<mgrwt>
<rscale>  4 0.43149778E+03</rscale>
<asrwt>0</asrwt>
<pdfrwt beam="1">  1       21 0.73162510E-01 0.43149778E+03</pdfrwt>
<pdfrwt beam="2">  1       21 0.97062392E-01 0.43149778E+03</pdfrwt>
<totfact> 0.12743339E+03</totfact>
</mgrwt>
</event>
<event>
 6      1 +2.5196620e+02 1.97763600e+02 7.54677100e-03 9.49153200e-02
       21 -1    0    0  505  502 +0.0000000000e+00 +0.0000000000e+00 +5.9924981292e+02 5.9924981292e+02 0.0000000000e+00 0.0000e+00 1.0000e+00
       21 -1    0    0  501  503 -0.0000000000e+00 -0.0000000000e+00 -6.4300821831e+02 6.4300821831e+02 0.0000000000e+00 0.0000e+00 1.0000e+00
        6  1    1    2  501    0 +1.7518277791e+01 +2.9257422618e+01 -4.9893833593e+02 5.2917988425e+02 1.7300000000e+02 0.0000e+00 1.0000e+00
       -6  1    1    2    0  502 -2.0340424556e+02 -1.0352383822e+02 +3.5471431540e+02 4.5589660861e+02 1.7300000000e+02 0.0000e+00 1.0000e+00
       21  1    1    2  504  503 +7.2443816356e+01 -1.5095386879e+01 -1.0924235229e+01 7.4801845891e+01 0.0000000000e+00 0.0000e+00 1.0000e+00
       21  1    1    2  505  504 +1.1344215142e+02 +8.9361802477e+01 +1.1138985038e+02 1.8237969247e+02 0.0000000000e+00 0.0000e+00 1.0000e+00
<mgrwt>
<rscale>  4 0.19776361E+03</rscale>
<asrwt>0</asrwt>
<pdfrwt beam="1">  1       21 0.92192280E-01 0.19776361E+03</pdfrwt>
<pdfrwt beam="2">  1       21 0.98924341E-01 0.19776361E+03</pdfrwt>
<totfact> 0.83239226E+02</totfact>
</mgrwt>
</event>
<event>
 6      1 +2.5196620e+02 2.61600600e+02 7.54677100e-03 1.06301000e-01
       21 -1    0    0  505  502 +0.0000000000e+00 +0.0000000000e+00 +6.1887922374e+02 6.1887922374e+02 0.0000000000e+00 0.0000e+00 -1.0000e+00
       21 -1    0    0  501  503 -0.0000000000e+00 -0.0000000000e+00 -2.2717075333e+02 2.2717075333e+02 0.0000000000e+00 0.0000e+00 -1.0000e+00
        6  1    1    2  501    0 -1.2640173683e+02 +1.4733161560e+02 +3.1368259477e+01 2.6191023602e+02 1.7300000000e+02 0.0000e+00 -1.0000e+00
       -6  1    1    2    0  502 +1.5625582817e+02 -9.0343950432e+01 +3.9338691165e+02 4.6611176286e+02 1.7300000000e+02 0.0000e+00 -1.0000e+00
       21  1    1    2  504  503 -4.3666981487e+01 -2.2555555548e+01 -5.5916421245e+01 7.4445983929e+01 0.0000000000e+00 0.0000e+00 -1.0000e+00
       21  1    1    2  505  504 +1.3812890152e+01 -3.4432109621e+01 +2.2869720524e+01 4.3581994265e+01 0.0000000000e+00 0.0000e+00 -1.0000e+00
<mgrwt>
<rscale>  4 0.26160065E+03</rscale>
<asrwt>0</asrwt>
<pdfrwt beam="1">  1       21 0.95212187E-01 0.26160065E+03</pdfrwt>
<pdfrwt beam="2">  1       21 0.34949347E-01 0.26160065E+03</pdfrwt>
<totfact> 0.69501905E+03</totfact>
</mgrwt>
</event>
<event>
 6      1 +2.5196620e+02 2.02541500e+02 7.54677100e-03 1.06301000e-01
       21 -1    0    0  501  502 +0.0000000000e+00 +0.0000000000e+00 +1.3166336120e+03 1.3166336120e+03 0.0000000000e+00 0.0000e+00 -1.0000e+00
       21 -1    0    0  504  503 -0.0000000000e+00 -0.0000000000e+00 -6.1571485883e+02 6.1571485883e+02 0.0000000000e+00 0.0000e+00 1.0000e+00
        6  1    1    2  501    0 +8.0886849961e+01 -6.9935117243e+01 +3.6914999469e+02 4.2146686904e+02 1.7300000000e+02 0.0000e+00 1.0000e+00
       -6  1    1    2    0  503 -1.4123679839e+02 +1.8655478146e+01 +6.2550749220e+00 2.2419631140e+02 1.7300000000e+02 0.0000e+00 1.0000e+00
       21  1    1    2  504  505 +4.1776115547e+01 -2.2901434010e+01 -4.7758433344e+02 4.7995470105e+02 0.0000000000e+00 0.0000e+00 1.0000e+00
       21  1    1    2  505  502 +1.8573832877e+01 +7.4181073107e+01 +8.0309801704e+02 8.0673058939e+02 0.0000000000e+00 0.0000e+00 -1.0000e+00
<mgrwt>
<rscale>  4 0.20254151E+03</rscale>
<asrwt>0</asrwt>
<pdfrwt beam="1">  1       21 0.20255902E+00 0.20254151E+03</pdfrwt>
<pdfrwt beam="2">  1       21 0.94725363E-01 0.20254151E+03</pdfrwt>
<totfact> 0.11894077E+02</totfact>
</mgrwt>
</event>
<event>
 6      1 +2.5196620e+02 2.18865400e+02 7.54677100e-03 1.16726300e-01
       21 -1    0    0  504  502 +0.0000000000e+00 +0.0000000000e+00 +1.5481459256e+03 1.5481459256e+03 0.0000000000e+00 0.0000e+00 1.0000e+00
       21 -1    0    0  502  503 -0.0000000000e+00 -0.0000000000e+00 -1.4963572955e+02 1.4963572955e+02 0.0000000000e+00 0.0000e+00 -1.0000e+00
        6  1    1    2  501    0 -1.0307608296e+02 +6.3251569748e+01 +1.4019113198e+03 1.4177128724e+03 1.7300000000e+02 0.0000e+00 1.0000e+00
       -6  1    1    2    0  505 +1.0541269478e+02 -4.0719663655e+01 -1.6896355581e+01 2.0732682909e+02 1.7300000000e+02 0.0000e+00 -1.0000e+00
       21  1    1    2  504  501 -2.1430670625e+01 -4.6982102721e+00 +3.3355029056e+01 3.9923737131e+01 0.0000000000e+00 0.0000e+00 -1.0000e+00
       21  1    1    2  505  503 +1.9094058804e+01 -1.7833695821e+01 -1.9859797252e+01 3.2818216514e+01 0.0000000000e+00 0.0000e+00 1.0000e+00
<mgrwt>
<rscale>  4 0.21886543E+03</rscale>
<asrwt>0</asrwt>
<pdfrwt beam="1">  1       21 0.23817629E+00 0.21886543E+03</pdfrwt>
<pdfrwt beam="2">  1       21 0.23020882E-01 0.21886543E+03</pdfrwt>
<totfact> 0.13442324E+03</totfact>
</mgrwt>
</event>
<event>
 6      1 +2.5196620e+02 2.67649400e+02 7.54677100e-03 9.49153200e-02
       21 -1    0    0  505  502 +0.0000000000e+00 +0.0000000000e+00 +2.0834658851e+02 2.0834658851e+02 0.0000000000e+00 0.0000e+00 -1.0000e+00
       21 -1    0    0  501  503 -0.0000000000e+00 -0.0000000000e+00 -7.1483680683e+02 7.1483680683e+02 0.0000000000e+00 0.0000e+00 1.0000e+00
        6  1    1    2  501    0 -5.5434353432e+01 +2.1879956526e+02 -4.7935812828e+02 5.5736830951e+02 1.7300000000e+02 0.0000e+00 1.0000e+00
       -6  1    1    2    0  502 +6.4573113249e+01 -2.0651642709e+02 -1.5562753512e+01 2.7747057665e+02 1.7300000000e+02 0.0000e+00 -1.0000e+00
       21  1    1    2  504  503 +8.6811197718e+00 -3.3951391398e+01 -3.6654022574e+01 5.0710710794e+01 0.0000000000e+00 0.0000e+00 1.0000e+00
       21  1    1    2  505  504 -1.7819879589e+01 +2.1668253231e+01 +2.5084686041e+01 3.7633798379e+01 0.0000000000e+00 0.0000e+00 -1.0000e+00
<mgrwt>
<rscale>  4 0.26764942E+03</rscale>
<asrwt>0</asrwt>
<pdfrwt beam="1">  1       21 0.32053321E-01 0.26764942E+03</pdfrwt>
<pdfrwt beam="2">  1       21 0.10997489E+00 0.26764942E+03</pdfrwt>
<totfact> 0.58145137E+03</totfact>
</mgrwt>
</event>
<event>
 6      1 +2.5196620e+02 3.12331800e+02 7.54677100e-03 1.16128000e-01
       21 -1    0    0  501  502 +0.0000000000e+00 +0.0000000000e+00 +2.4995923848e+02 2.4995923848e+02 0.0000000000e+00 0.0000e+00 1.0000e+00
       21 -1    0    0  502  503 -0.0000000000e+00 -0.0000000000e+00 -6.9909311668e+02 6.9909311668e+02 0.0000000000e+00 0.0000e+00 1.0000e+00
        6  1    1    2  501    0 +6.1879652622e+01 -6.3763024510e+01 +1.9176669868e+01 1.9542660866e+02 1.7300000000e+02 0.0000e+00 -1.0000e+00
       -6  1    1    2    0  504 +2.2529744802e+02 +4.5064105388e+01 -1.7974026205e+02 3.3915376377e+02 1.7300000000e+02 0.0000e+00 1.0000e+00
       21  1    1    2  504  505 -2.6339509027e+02 +4.3894073874e+00 -2.3020600794e+02 3.4984431761e+02 0.0000000000e+00 0.0000e+00 1.0000e+00
       21  1    1    2  505  503 -2.3782010372e+01 +1.4309511734e+01 -5.8364278075e+01 6.4627665118e+01 0.0000000000e+00 0.0000e+00 -1.0000e+00
<mgrwt>
<rscale>  4 0.27744881E+03</rscale>
<asrwt>0</asrwt>
<pdfrwt beam="1">  1       21 0.38455267E-01 0.31233184E+03</pdfrwt>
<pdfrwt beam="2">  1       21 0.10755279E+00 0.31233184E+03</pdfrwt>
<totfact> 0.41600908E+03</totfact>
</mgrwt>
</event>
<event>
 6      1 +2.5196620e+02 1.81952700e+02 7.54677100e-03 1.02776600e-01
       21 -1    0    0  501  502 +0.0000000000e+00 +0.0000000000e+00 +3.0737277416e+01 3.0737277416e+01 0.0000000000e+00 0.0000e+00 -1.0000e+00
       21 -1    0    0  505  503 -0.0000000000e+00 -0.0000000000e+00 -1.9601350517e+03 1.9601350517e+03 0.0000000000e+00 0.0000e+00 -1.0000e+00
        6  1    1    2  501    0 +4.9256228247e+01 -5.5300586740e+01 -4.6446874618e+02 5.0114324009e+02 1.7300000000e+02 0.0000e+00 -1.0000e+00
       -6  1    1    2    0  503 +8.9210982038e+00 +4.1760425313e+01 -7.2315048657e+02 7.4478127349e+02 1.7300000000e+02 0.0000e+00 1.0000e+00
       21  1    1    2  504  502 -2.0066079231e+01 +2.0475686357e+01 -2.4783988093e+02 2.4949250059e+02 0.0000000000e+00 0.0000e+00 -1.0000e+00
       21  1    1    2  505  504 -3.8111247219e+01 -6.9355249296e+00 -4.9393866061e+02 4.9545531495e+02 0.0000000000e+00 0.0000e+00 -1.0000e+00
<mgrwt>
<rscale>  4 0.18195266E+03</rscale>
<asrwt>0</asrwt>
<pdfrwt beam="1">  1       21 0.47288125E-02 0.18195266E+03</pdfrwt>
<pdfrwt beam="2">  1       21 0.30155920E+00 0.18195266E+03</pdfrwt>
<totfact> 0.10003338E+04</totfact>
</mgrwt>
</event>
<event>
 6      1 +2.5196620e+02 1.96630600e+02 7.54677100e-03 1.06301000e-01
       21 -1    0    0  503  502 +0.0000000000e+00 +0.0000000000e+00 +6.6871910734e+02 6.6871910734e+02 0.0000000000e+00 0.0000e+00 -1.0000e+00
       21 -1    0    0  504  503 -0.0000000000e+00 -0.0000000000e+00 -1.8754450737e+02 1.8754450737e+02 0.0000000000e+00 0.0000e+00 -1.0000e+00
        6  1    1    2  501    0 -9.0501198482e+01 -4.1429702947e+00 -1.9974787136e+01 1.9630492416e+02 1.7300000000e+02 0.0000e+00 -1.0000e+00
       -6  1    1    2    0  505 +5.4328288981e+01 -3.1661374772e+00 +3.4042654206e+02 3.8572116606e+02 1.7300000000e+02 0.0000e+00 -1.0000e+00
       21  1    1    2  504  501 -1.6646779849e+01 +2.5985361490e+01 -4.8587258917e+01 5.7559326092e+01 0.0000000000e+00 0.0000e+00 -1.0000e+00
       21  1    1    2  505  502 +5.2819689350e+01 -1.8676253718e+01 +2.0931010397e+02 2.1667819839e+02 0.0000000000e+00 0.0000e+00 -1.0000e+00
<mgrwt>
<rscale>  4 0.19663063E+03</rscale>
<asrwt>0</asrwt>
<pdfrwt beam="1">  1       21 0.10287986E+00 0.19663063E+03</pdfrwt>
<pdfrwt beam="2">  1       21 0.28853001E-01 0.19663063E+03</pdfrwt>
<totfact> 0.87942168E+03</totfact>
</mgrwt>
</event>
<event>
 6      1 +2.5196620e+02 2.02321600e+02 7.54677100e-03 9.49153200e-02
       21 -1    0    0  504  502 +0.0000000000e+00 +0.0000000000e+00 +1.4042148636e+03 1.4042148636e+03 0.0000000000e+00 0.0000e+00 1.0000e+00
       21 -1    0    0  501  503 -0.0000000000e+00 -0.0000000000e+00 -1.1649747109e+02 1.1649747109e+02 0.0000000000e+00 0.0000e+00 1.0000e+00
        6  1    1    2  501    0 -6.5802183125e+01 +3.5043583533e+01 +3.7275236337e+02 4.1764973895e+02 1.7300000000e+02 0.0000e+00 1.0000e+00
       -6  1    1    2    0  505 +1.4805521719e+02 -8.8277185633e+00 +2.1485088871e+02 3.1319032605e+02 1.7300000000e+02 0.0000e+00 1.0000e+00
       21  1    1    2  504  503 -4.9793505590e+01 -1.4195656533e+01 -2.9396820882e+01 5.9540599101e+01 0.0000000000e+00 0.0000e+00 1.0000e+00
       21  1    1    2  505  502 -3.2459528471e+01 -1.2020208437e+01 +7.2951096130e+02 7.3033167058e+02 0.0000000000e+00 0.0000e+00 -1.0000e+00
<mgrwt>
<rscale>  4 0.20232161E+03</rscale>
<asrwt>0</asrwt>
<pdfrwt beam="1">  1       21 0.21603304E+00 0.20232161E+03</pdfrwt>
<pdfrwt beam="2">  1       21 0.17922689E-01 0.20232161E+03</pdfrwt>
<totfact> 0.29824628E+03</totfact>
</mgrwt>
</event>
<event>
 6      1 +2.5196620e+02 1.76952300e+02 7.54677100e-03 9.49153200e-02
       21 -1    0    0  505  502 +0.0000000000e+00 +0.0000000000e+00 +7.7241874623e+02 7.7241874623e+02 0.0000000000e+00 0.0000e+00 1.0000e+00
       21 -1    0    0  504  503 -0.0000000000e+00 -0.0000000000e+00 -2.5223386184e+02 2.5223386184e+02 0.0000000000e+00 0.0000e+00 1.0000e+00
        6  1    1    2  501    0 +3.2741090609e+01 +6.0557152353e+01 +4.9505448416e+01 1.9266275493e+02 1.7300000000e+02 0.0000e+00 -1.0000e+00
       -6  1    1    2    0  502 -2.1152547258e+01 +4.4984931088e+00 +4.2833863665e+01 1.7953107411e+02 1.7300000000e+02 0.0000e+00 1.0000e+00
       21  1    1    2  504  501 +2.0637867295e+01 -3.9303505222e+00 -1.0909027365e+02 1.1109481098e+02 0.0000000000e+00 0.0000e+00 1.0000e+00
       21  1    1    2  505  503 -3.2226410645e+01 -6.1125294940e+01 +5.3693584596e+02 5.4136396805e+02 0.0000000000e+00 0.0000e+00 1.0000e+00
<mgrwt>
<rscale>  4 0.17695226E+03</rscale>
<asrwt>0</asrwt>
<pdfrwt beam="1">  1       21 0.11883365E+00 0.17695226E+03</pdfrwt>
<pdfrwt beam="2">  1       21 0.38805210E-01 0.17695226E+03</pdfrwt>
<totfact> 0.35123348E+03</totfact>
</mgrwt>
</event>
<event>
 6      1 +2.5196620e+02 2.06413300e+02 7.54677100e-03 1.06301000e-01
       21 -1    0    0  505  502 +0.0000000000e+00 +0.0000000000e+00 +1.0591074718e+03 1.0591074718e+03 0.0000000000e+00 0.0000e+00 1.0000e+00
       21 -1    0    0  501  503 -0.0000000000e+00 -0.0000000000e+00 -1.4898397711e+02 1.4898397711e+02 0.0000000000e+00 0.0000e+00 -1.0000e+00
        6  1    1    2  501    0 +8.2483758129e+01 -5.4949509852e+01 +2.9787967732e+02 3.5844709672e+02 1.7300000000e+02 0.0000e+00 1.0000e+00
       -6  1    1    2    0  502 -1.1451688704e+02 +5.8584134668e+01 +3.7306462797e+02 4.3087403599e+02 1.7300000000e+02 0.0000e+00 -1.0000e+00
       21  1    1    2  504  503 -1.8858491334e+01 -3.9331307549e+01 -8.1330032378e+01 9.2288507494e+01 0.0000000000e+00 0.0000e+00 -1.0000e+00
       21  1    1    2  505  504 +5.0891620248e+01 +3.5696682733e+01 +3.2050922173e+02 3.2648180865e+02 0.0000000000e+00 0.0000e+00 -1.0000e+00
<mgrwt>
<rscale>  4 0.20641332E+03</rscale>
<asrwt>0</asrwt>
<pdfrwt beam="1">  1       21 0.16293961E+00 0.20641332E+03</pdfrwt>
<pdfrwt beam="2">  1       21 0.22920613E-01 0.20641332E+03</pdfrwt>
<totfact> 0.42294601E+03</totfact>
</mgrwt>
</event>
<event>
 6      1 +2.5196620e+02 2.35065300e+02 7.54677100e-03 1.06301000e-01
       21 -1    0    0  505  502 +0.0000000000e+00 +0.0000000000e+00 +3.0976684214e+02 3.0976684214e+02 0.0000000000e+00 0.0000e+00 1.0000e+00
       21 -1    0    0  501  503 -0.0000000000e+00 -0.0000000000e+00 -1.3891444473e+03 1.3891444473e+03 0.0000000000e+00 0.0000e+00 1.0000e+00
        6  1    1    2  501    0 +2.3674294324e+02 -4.6336545928e-01 -2.0455515289e+02 3.5751817639e+02 1.7300000000e+02 0.0000e+00 1.0000e+00
       -6  1    1    2    0  502 -6.2289481813e+01 -3.3869370360e+01 +2.1968587417e+01 1.8825177988e+02 1.7300000000e+02 0.0000e+00 1.0000e+00
       21  1    1    2  504  503 -3.3761648948e+01 +4.1855214117e+01 -9.8529220557e+02 9.8675855114e+02 0.0000000000e+00 0.0000e+00 1.0000e+00
       21  1    1    2  505  504 -1.4069181248e+02 -7.5224782973e+00 +8.8501165914e+01 1.6638278200e+02 0.0000000000e+00 0.0000e+00 1.0000e+00
<mgrwt>
<rscale>  4 0.23506528E+03</rscale>
<asrwt>0</asrwt>
<pdfrwt beam="1">  1       21 0.47656437E-01 0.23506528E+03</pdfrwt>
<pdfrwt beam="2">  1       21 0.21371453E+00 0.23506528E+03</pdfrwt>
<totfact> 0.44095012E+02</totfact>
</mgrwt>
</event>
<event>
 6      1 +2.5196620e+02 1.95630900e+02 7.54677100e-03 9.49153200e-02
       21 -1    0    0  505  502 +0.0000000000e+00 +0.0000000000e+00 +6.9404612395e+02 6.9404612395e+02 0.0000000000e+00 0.0000e+00 -1.0000e+00
       21 -1    0    0  504  503 -0.0000000000e+00 -0.0000000000e+00 -4.8556552674e+02 4.8556552674e+02 0.0000000000e+00 0.0000e+00 -1.0000e+00
        6  1    1    2  501    0 -7.7082534497e+01 +3.5096243915e+01 -3.2746920450e+02 3.7991912739e+02 1.7300000000e+02 0.0000e+00 -1.0000e+00
       -6  1    1    2    0  502 +8.1062918221e+01 -3.1236266158e+01 +1.3518030664e+02 2.3611356661e+02 1.7300000000e+02 0.0000e+00 -1.0000e+00
       21  1    1    2  504  501 +4.0640327030e+00 +2.4512650036e+01 -7.9045361485e+01 8.2858647985e+01 0.0000000000e+00 0.0000e+00 1.0000e+00
       21  1    1    2  505  503 -8.0444164270e+00 -2.8372627794e+01 +4.7981485654e+02 4.8072030871e+02 0.0000000000e+00 0.0000e+00 -1.0000e+00
<mgrwt>
<rscale>  4 0.19563092E+03</rscale>
<asrwt>0</asrwt>
<pdfrwt beam="1">  1       21 0.10677633E+00 0.19563092E+03</pdfrwt>
<pdfrwt beam="2">  1       21 0.74702389E-01 0.19563092E+03</pdfrwt>
<totfact> 0.11223372E+03</totfact>
</mgrwt>
</event>
<event>
 6      1 +2.5196620e+02 2.87194000e+02 7.54677100e-03 1.16726300e-01
       21 -1    0    0  504  502 +0.0000000000e+00 +0.0000000000e+00 +9.0463069752e+01 9.0463069752e+01 0.0000000000e+00 0.0000e+00 1.0000e+00
       21 -1    0    0  502  503 -0.0000000000e+00 -0.0000000000e+00 -1.2109955604e+03 1.2109955604e+03 0.0000000000e+00 0.0000e+00 1.0000e+00
        6  1    1    2  501    0 -1.8555386550e+02 -6.4797321156e+01 -2.5884777464e+02 3.6818487241e+02 1.7300000000e+02 0.0000e+00 1.0000e+00
       -6  1    1    2    0  505 +2.3317794883e+02 +7.7614292318e+01 -7.9059883337e+02 8.4579634045e+02 1.7300000000e+02 0.0000e+00 1.0000e+00
       21  1    1    2  504  501 -2.1378924872e+01 -7.3919482063e+00 -2.2015527209e+01 3.1565531284e+01 0.0000000000e+00 0.0000e+00 -1.0000e+00
       21  1    1    2  505  503 -2.6245158454e+01 -5.4250229557e+00 -4.9070355474e+01 5.5911886059e+01 0.0000000000e+00 0.0000e+00 1.0000e+00
<mgrwt>
<rscale>  4 0.28719396E+03</rscale>
<asrwt>0</asrwt>
<pdfrwt beam="1">  1       21 0.13917394E-01 0.28719396E+03</pdfrwt>
<pdfrwt beam="2">  1       21 0.18630702E+00 0.28719396E+03</pdfrwt>
<totfact> 0.69311465E+03</totfact>
</mgrwt>
</event>
<event>
 6      1 +2.5196620e+02 1.74528800e+02 7.54677100e-03 1.06301000e-01
       21 -1    0    0  501  502 +0.0000000000e+00 +0.0000000000e+00 +8.0384198427e+02 8.0384198427e+02 0.0000000000e+00 0.0000e+00 1.0000e+00
       21 -1    0    0  504  503 -0.0000000000e+00 -0.0000000000e+00 -1.5734059744e+02 1.5734059744e+02 0.0000000000e+00 0.0000e+00 1.0000e+00
        6  1    1    2  501    0 -2.5847731676e+01 -7.0685317160e+00 +5.3660096331e+02 5.6443570333e+02 1.7300000000e+02 0.0000e+00 1.0000e+00
       -6  1    1    2    0  503 +7.1874276619e+00 -5.8011450895e+01 +1.5098038180e+02 2.3694105435e+02 1.7300000000e+02 0.0000e+00 1.0000e+00
       21  1    1    2  504  505 +2.4644414340e+01 +1.5432989003e+01 -8.7112840755e+01 9.1837744595e+01 0.0000000000e+00 0.0000e+00 1.0000e+00
       21  1    1    2  505  502 -5.9841103257e+00 +4.9646993608e+01 +4.6032882481e+01 6.7968079421e+01 0.0000000000e+00 0.0000e+00 1.0000e+00
<mgrwt>
<rscale>  4 0.17452882E+03</rscale>
<asrwt>0</asrwt>
<pdfrwt beam="1">  1       21 0.12366799E+00 0.17452882E+03</pdfrwt>
<pdfrwt beam="2">  1       21 0.24206246E-01 0.17452882E+03</pdfrwt>
<totfact> 0.80035671E+03</totfact>
</mgrwt>
</event>
<event>
 6      1 +2.5196620e+02 2.28898400e+02 7.54677100e-03 9.49153200e-02
       21 -1    0    0  503  502 +0.0000000000e+00 +0.0000000000e+00 +3.5940305150e+02 3.5940305150e+02 0.0000000000e+00 0.0000e+00 1.0000e+00
       21 -1    0    0  504  503 -0.0000000000e+00 -0.0000000000e+00 -8.6827447175e+02 8.6827447175e+02 0.0000000000e+00 0.0000e+00 1.0000e+00
        6  1    1    2  501    0 +8.1604729152e-01 +1.1497350546e+02 -2.8880020568e+02 3.5574447528e+02 1.7300000000e+02 0.0000e+00 1.0000e+00
       -6  1    1    2    0  505 -2.8175244656e+01 -1.8706187884e+02 -3.8231105026e+02 4.6030069528e+02 1.7300000000e+02 0.0000e+00 1.0000e+00
       21  1    1    2  504  501 -1.0801486278e+00 +2.3481700284e+01 -1.2078912928e+02 1.2305515317e+02 0.0000000000e+00 0.0000e+00 1.0000e+00
       21  1    1    2  505  502 +2.8439345992e+01 +4.8606673105e+01 +2.8302896497e+02 2.8857719952e+02 0.0000000000e+00 0.0000e+00 1.0000e+00
<mgrwt>
<rscale>  4 0.22889837E+03</rscale>
<asrwt>0</asrwt>
<pdfrwt beam="1">  1       21 0.55292779E-01 0.22889837E+03</pdfrwt>
<pdfrwt beam="2">  1       21 0.13358068E+00 0.22889837E+03</pdfrwt>
<totfact> 0.12027869E+03</totfact>
</mgrwt>
</event>
<event>
 6      1 +2.5196620e+02 2.42586100e+02 7.54677100e-03 9.28652600e-02
       21 -1    0    0  505  502 +0.0000000000e+00 +0.0000000000e+00 +2.1364316182e+02 2.1364316182e+02 0.0000000000e+00 0.0000e+00 1.0000e+00
       21 -1    0    0  504  503 -0.0000000000e+00 -0.0000000000e+00 -6.4703757339e+02 6.4703757339e+02 0.0000000000e+00 0.0000e+00 -1.0000e+00
        6  1    1    2  501    0 +1.5754713128e+02 +7.1853581980e+01 -9.3857760632e+01 2.6214941360e+02 1.7300000000e+02 0.0000e+00 -1.0000e+00
       -6  1    1    2    0  502 -1.6714014858e+02 -3.1224662079e+01 +9.3013961546e+00 2.4274745058e+02 1.7300000000e+02 0.0000e+00 1.0000e+00
       21  1    1    2  504  501 +3.0033761988e+01 -3.5736050147e+01 -1.9461456838e+02 2.0013476051e+02 0.0000000000e+00 0.0000e+00 -1.0000e+00
       21  1    1    2  505  503 -2.0440744689e+01 -4.8928697541e+00 -1.5422347872e+02 1.5564911052e+02 0.0000000000e+00 0.0000e+00 -1.0000e+00
<mgrwt>
<rscale>  4 0.24258607E+03</rscale>
<asrwt>0</asrwt>
<pdfrwt beam="1">  1       21 0.32868180E-01 0.24258607E+03</pdfrwt>
<pdfrwt beam="2">  1       21 0.99544239E-01 0.24258607E+03</pdfrwt>
<totfact> 0.71459620E+03</totfact>
</mgrwt>
</event>
<event>
 6      1 +2.5196620e+02 1.79659200e+02 7.54677100e-03 1.06301000e-01
       21 -1    0    0  505  502 +0.0000000000e+00 +0.0000000000e+00 +2.5113806975e+03 2.5113806975e+03 0.0000000000e+00 0.0000e+00 -1.0000e+00
       21 -1    0    0  504  503 -0.0000000000e+00 -0.0000000000e+00 -3.1500997588e+01 3.1500997588e+01 0.0000000000e+00 0.0000e+00 -1.0000e+00
        6  1    1    2  501    0 +1.3517128010e+01 -2.9293419416e+01 +7.9461355760e+02 8.1386763241e+02 1.7300000000e+02 0.0000e+00 -1.0000e+00
       -6  1    1    2    0  502 -6.9477771210e+01 +1.1045206923e+01 +1.0372134646e+03 1.0538927499e+03 1.7300000000e+02 0.0000e+00 -1.0000e+00
       21  1    1    2  504  501 +4.9346908350e+01 -3.4253260836e+01 +6.0730469495e+01 8.5420098143e+01 0.0000000000e+00 0.0000e+00 -1.0000e+00
       21  1    1    2  505  503 +6.6137348507e+00 +5.2501473329e+01 +5.8732220829e+02 5.8970121463e+02 0.0000000000e+00 0.0000e+00 -1.0000e+00
<mgrwt>
<rscale>  4 0.17965920E+03</rscale>
<asrwt>0</asrwt>
<pdfrwt beam="1">  1       21 0.38636610E+00 0.17965920E+03</pdfrwt>
<pdfrwt beam="2">  1       21 0.48463093E-02 0.17965920E+03</pdfrwt>
<totfact> 0.30564195E+03</totfact>
</mgrwt>
</event>
<event>
 6      1 +2.5196620e+02 1.76117600e+02 7.54677100e-03 1.16128000e-01
       21 -1    0    0  501  502 +0.0000000000e+00 +0.0000000000e+00 +1.1466524176e+02 1.1466524176e+02 0.0000000000e+00 0.0000e+00 1.0000e+00
       21 -1    0    0  502  503 -0.0000000000e+00 -0.0000000000e+00 -1.2140272574e+03 1.2140272574e+03 0.0000000000e+00 0.0000e+00 1.0000e+00
        6  1    1    2  501    0 -1.6046047414e+02 -1.0735082326e+01 -6.3898359024e+02 6.8124286004e+02 1.7300000000e+02 0.0000e+00 1.0000e+00
       -6  1    1    2    0  504 +1.1722614004e+01 -1.6478837998e+01 -1.3565586131e+01 1.7470545758e+02 1.7300000000e+02 0.0000e+00 1.0000e+00
       21  1    1    2  504  505 +7.7398844444e+01 +2.2287200993e+01 -2.7743149576e+02 2.8888671705e+02 0.0000000000e+00 0.0000e+00 1.0000e+00
       21  1    1    2  505  503 +7.1339015687e+01 +4.9267193307e+00 -1.6938134346e+02 1.8385746445e+02 0.0000000000e+00 0.0000e+00 1.0000e+00
<mgrwt>
<rscale>  4 0.17611757E+03</rscale>
<asrwt>0</asrwt>
<pdfrwt beam="1">  1       21 0.17640807E-01 0.17611757E+03</pdfrwt>
<pdfrwt beam="2">  1       21 0.18677342E+00 0.17611757E+03</pdfrwt>
<totfact> 0.48486313E+03</totfact>
</mgrwt>
</event>
<event>
 6      1 +2.5196620e+02 2.37240400e+02 7.54677100e-03 1.06301000e-01
       21 -1    0    0  505  502 +0.0000000000e+00 +0.0000000000e+00 +5.0500794487e+02 5.0500794487e+02 0.0000000000e+00 0.0000e+00 -1.0000e+00
       21 -1    0    0  504  503 -0.0000000000e+00 -0.0000000000e+00 -2.1373389773e+02 2.1373389773e+02 0.0000000000e+00 0.0000e+00 -1.0000e+00
        6  1    1    2  501    0 +1.5607286617e+02 -5.7368730472e+01 +1.6287777129e+01 2.4050821706e+02 1.7300000000e+02 0.0000e+00 -1.0000e+00
       -6  1    1    2    0  503 -1.1899835754e+02 +9.2620854879e+01 +2.1398362438e+02 3.1377894027e+02 1.7300000000e+02 0.0000e+00 -1.0000e+00
       21  1    1    2  504  502 -7.7673162524e-01 -2.0707672405e+01 -4.6042570831e+01 5.0490883703e+01 0.0000000000e+00 0.0000e+00 -1.0000e+00
       21  1    1    2  505  501 -3.6297777003e+01 -1.4544452002e+01 +1.0704521646e+02 1.1396380156e+02 0.0000000000e+00 0.0000e+00 -1.0000e+00
<mgrwt>
<rscale>  4 0.23724040E+03</rscale>
<asrwt>0</asrwt>
<pdfrwt beam="1">  1       21 0.77693530E-01 0.23724040E+03</pdfrwt>
<pdfrwt beam="2">  1       21 0.32882138E-01 0.23724040E+03</pdfrwt>
<totfact> 0.12723778E+04</totfact>
</mgrwt>
</event>
<event>
 6      1 +2.5196620e+02 2.10464500e+02 7.54677100e-03 1.06301000e-01
       21 -1    0    0  501  502 +0.0000000000e+00 +0.0000000000e+00 +9.4788329028e+02 9.4788329028e+02 0.0000000000e+00 0.0000e+00 1.0000e+00
       21 -1    0    0  504  503 -0.0000000000e+00 -0.0000000000e+00 -7.7555099635e+01 7.7555099635e+01 0.0000000000e+00 0.0000e+00 -1.0000e+00
        6  1    1    2  501    0 +3.8427839740e+00 -1.0403806674e+02 +4.9528384602e+02 5.3485864904e+02 1.7300000000e+02 0.0000e+00 1.0000e+00
       -6  1    1    2    0  503 +4.4661263513e+01 +1.4582344870e+02 +2.3410444489e+02 3.2862288077e+02 1.7300000000e+02 0.0000e+00 -1.0000e+00
       21  1    1    2  504  505 -1.3787883801e+01 -4.0687235397e+01 +5.9214701572e+01 7.3156939153e+01 0.0000000000e+00 0.0000e+00 -1.0000e+00
       21  1    1    2  505  502 -3.4716163686e+01 -1.0981465563e+00 +8.1725198159e+01 8.8799920952e+01 0.0000000000e+00 0.0000e+00 -1.0000e+00
<mgrwt>
<rscale>  4 0.21046454E+03</rscale>
<asrwt>0</asrwt>
<pdfrwt beam="1">  1       21 0.14582819E+00 0.21046454E+03</pdfrwt>
<pdfrwt beam="2">  1       21 0.11931554E-01 0.21046454E+03</pdfrwt>
<totfact> 0.18855662E+04</totfact>
</mgrwt>
</event>
<event>
 6      1 +2.5196620e+02 1.99553700e+02 7.54677100e-03 1.14954000e-01
       21 -1    0    0  501  502 +0.0000000000e+00 +0.0000000000e+00 +1.7426958858e+02 1.7426958858e+02 0.0000000000e+00 0.0000e+00 -1.0000e+00
       21 -1    0    0  505  503 -0.0000000000e+00 -0.0000000000e+00 -3.3406991181e+02 3.3406991181e+02 0.0000000000e+00 0.0000e+00 -1.0000e+00
        6  1    1    2  501    0 -7.0143304524e+01 -7.5339562673e+01 -1.3002743368e+02 2.3965030019e+02 1.7300000000e+02 0.0000e+00 -1.0000e+00
       -6  1    1    2    0  503 +1.0121093185e+02 +2.5621908083e+01 -4.2258866464e+01 2.0643387971e+02 1.7300000000e+02 0.0000e+00 -1.0000e+00
       21  1    1    2  504  502 -2.7448931116e+01 +2.8929417653e+01 +7.6214229889e+00 4.0600998923e+01 0.0000000000e+00 0.0000e+00 -1.0000e+00
       21  1    1    2  505  504 -3.6186962067e+00 +2.0788236937e+01 +4.8645539243e+00 2.1654321557e+01 0.0000000000e+00 0.0000e+00 -1.0000e+00
<mgrwt>
<rscale>  4 0.19955375E+03</rscale>
<asrwt>0</asrwt>
<pdfrwt beam="1">  1       21 0.26810706E-01 0.19955375E+03</pdfrwt>
<pdfrwt beam="2">  1       21 0.51395371E-01 0.19955375E+03</pdfrwt>
<totfact> 0.47494353E+04</totfact>
</mgrwt>
</event>
<event>
 6      1 +2.5196620e+02 1.86751000e+02 7.54677100e-03 9.49153200e-02
       21 -1    0    0  503  502 +0.0000000000e+00 +0.0000000000e+00 +3.4592065340e+02 3.4592065340e+02 0.0000000000e+00 0.0000e+00 1.0000e+00
       21 -1    0    0  504  503 -0.0000000000e+00 -0.0000000000e+00 -2.8898224188e+02 2.8898224188e+02 0.0000000000e+00 0.0000e+00 1.0000e+00
        6  1    1    2  501    0 +8.5931730973e+01 +1.0083049149e+01 -5.7324859051e+01 2.0174506124e+02 1.7300000000e+02 0.0000e+00 1.0000e+00
       -6  1    1    2    0  505 -4.3115575393e+01 +9.7282323370e+01 +3.6887250772e+01 2.0642788705e+02 1.7300000000e+02 0.0000e+00 1.0000e+00
       21  1    1    2  504  501 -2.8359141701e+01 -1.8791108996e+00 -5.1948613304e+01 5.9215119691e+01 0.0000000000e+00 0.0000e+00 -1.0000e+00
       21  1    1    2  505  502 -1.4457013880e+01 -1.0548626162e+02 +1.2932463310e+02 1.6751482731e+02 0.0000000000e+00 0.0000e+00 1.0000e+00
<mgrwt>
<rscale>  4 0.18675101E+03</rscale>
<asrwt>0</asrwt>
<pdfrwt beam="1">  1       21 0.53218563E-01 0.18675101E+03</pdfrwt>
<pdfrwt beam="2">  1       21 0.44458806E-01 0.18675101E+03</pdfrwt>
<totfact> 0.16301976E+04</totfact>
</mgrwt>
</event>
<event>
 6      1 +2.5196620e+02 3.26313300e+02 7.54677100e-03 1.07655700e-01
       21 -1    0    0  501  502 +0.0000000000e+00 +0.0000000000e+00 +2.9323490387e+02 2.9323490387e+02 0.0000000000e+00 0.0000e+00 -1.0000e+00
       21 -1    0    0  502  503 -0.0000000000e+00 -0.0000000000e+00 -7.1210637774e+02 7.1210637774e+02 0.0000000000e+00 0.0000e+00 1.0000e+00
        6  1    1    2  501    0 +2.4972106241e+02 -1.1705975545e+02 +1.0455736744e+02 3.4194274147e+02 1.7300000000e+02 0.0000e+00 1.0000e+00
       -6  1    1    2    0  505 -2.7409534670e+02 +7.2299212285e+01 -3.6616724194e+02 4.9433074378e+02 1.7300000000e+02 0.0000e+00 1.0000e+00
       21  1    1    2  504  503 +3.2811623604e+00 +2.2831468992e+01 -1.1316926567e+02 1.1549599428e+02 0.0000000000e+00 0.0000e+00 -1.0000e+00
       21  1    1    2  505  504 +2.1093121928e+01 +2.1929074176e+01 -4.4092333708e+01 5.3571802085e+01 0.0000000000e+00 0.0000e+00 -1.0000e+00
<mgrwt>
<rscale>  4 0.32631329E+03</rscale>
<asrwt>0</asrwt>
<pdfrwt beam="1">  1       21 0.45113062E-01 0.32631329E+03</pdfrwt>
<pdfrwt beam="2">  1       21 0.10955483E+00 0.32631329E+03</pdfrwt>
<totfact> 0.28427192E+03</totfact>
</mgrwt>
</event>
<event>
 6      1 +2.5196620e+02 2.14841000e+02 7.54677100e-03 1.11396600e-01
       21 -1    0    0  505  502 +0.0000000000e+00 +0.0000000000e+00 +2.5224822282e+02 2.5224822282e+02 0.0000000000e+00 0.0000e+00 -1.0000e+00
       21 -1    0    0  501  503 -0.0000000000e+00 -0.0000000000e+00 -2.9355487485e+02 2.9355487485e+02 0.0000000000e+00 0.0000e+00 -1.0000e+00
        6  1    1    2  501    0 -8.0780687298e+01 +9.1371100096e+01 -1.3041263617e+02 2.4861748339e+02 1.7300000000e+02 0.0000e+00 -1.0000e+00
       -6  1    1    2    0  502 +5.5269108340e+01 -1.3505923936e+02 +5.2365887264e+01 2.3230768094e+02 1.7300000000e+02 0.0000e+00 -1.0000e+00
       21  1    1    2  504  503 +8.5657617420e+00 +2.3704651336e+01 +2.6970511553e+01 3.6914648347e+01 0.0000000000e+00 0.0000e+00 1.0000e+00
       21  1    1    2  505  504 +1.6945817215e+01 +1.9983487928e+01 +9.7695853208e+00 2.7963285003e+01 0.0000000000e+00 0.0000e+00 1.0000e+00
<mgrwt>
<rscale>  4 0.21484096E+03</rscale>
<asrwt>0</asrwt>
<pdfrwt beam="1">  1       21 0.38807419E-01 0.21484096E+03</pdfrwt>
<pdfrwt beam="2">  1       21 0.45162288E-01 0.21484096E+03</pdfrwt>
<totfact> 0.29756622E+04</totfact>
</mgrwt>
</event>
<event>
 6      1 +2.5196620e+02 2.68853700e+02 7.54677100e-03 1.16558800e-01
       21 -1    0    0  503  502 +0.0000000000e+00 +0.0000000000e+00 +3.8146157050e+02 3.8146157050e+02 0.0000000000e+00 0.0000e+00 1.0000e+00
       21 -1    0    0  504  503 -0.0000000000e+00 -0.0000000000e+00 -3.4875082800e+02 3.4875082800e+02 0.0000000000e+00 0.0000e+00 -1.0000e+00
        6  1    1    2  501    0 +1.5977718578e+02 -1.2806521461e+02 -1.6690758305e+02 3.1577933683e+02 1.7300000000e+02 0.0000e+00 -1.0000e+00
       -6  1    1    2    0  505 -1.1477691198e+02 +1.8588011713e+02 +1.4655455013e+02 3.1485297145e+02 1.7300000000e+02 0.0000e+00 1.0000e+00
       21  1    1    2  504  501 -3.8914077231e+01 -3.6759748372e+01 +1.4892531216e+01 5.5564125055e+01 0.0000000000e+00 0.0000e+00 -1.0000e+00
       21  1    1    2  505  502 -6.0861965680e+00 -2.1055154152e+01 +3.8171244205e+01 4.4015965162e+01 0.0000000000e+00 0.0000e+00 1.0000e+00
<mgrwt>
<rscale>  4 0.26885366E+03</rscale>
<asrwt>0</asrwt>
<pdfrwt beam="1">  1       21 0.58686395E-01 0.26885366E+03</pdfrwt>
<pdfrwt beam="2">  1       21 0.53653974E-01 0.26885366E+03</pdfrwt>
<totfact> 0.85212100E+03</totfact>
</mgrwt>
</event>
<event>
 6      1 +2.5196620e+02 2.98399300e+02 7.54677100e-03 1.13287100e-01
       21 -1    0    0  505  502 +0.0000000000e+00 +0.0000000000e+00 +8.2931679610e+02 8.2931679610e+02 0.0000000000e+00 0.0000e+00 1.0000e+00
       21 -1    0    0  502  503 -0.0000000000e+00 -0.0000000000e+00 -6.7170647073e+02 6.7170647073e+02 0.0000000000e+00 0.0000e+00 -1.0000e+00
        6  1    1    2  501    0 -1.2522831052e+02 -3.7511127601e+02 +4.0643278270e+01 4.3355677277e+02 1.7300000000e+02 0.0000e+00 1.0000e+00
       -6  1    1    2    0  503 -4.3095659079e+01 +1.8691570201e+02 -1.9992173446e+02 3.2663804953e+02 1.7300000000e+02 0.0000e+00 -1.0000e+00
       21  1    1    2  504  501 +2.2563888346e+02 -5.5789629512e+01 -1.0109240957e+02 2.5346609983e+02 0.0000000000e+00 0.0000e+00 -1.0000e+00
       21  1    1    2  505  504 -5.7314913859e+01 +2.4398520351e+02 +4.1798119114e+02 4.8736234470e+02 0.0000000000e+00 0.0000e+00 1.0000e+00
<mgrwt>
<rscale>  4 0.29839935E+03</rscale>
<asrwt>0</asrwt>
<pdfrwt beam="1">  1       21 0.12758720E+00 0.29839935E+03</pdfrwt>
<pdfrwt beam="2">  1       21 0.10333946E+00 0.29839935E+03</pdfrwt>
<totfact> 0.31096691E+02</totfact>
</mgrwt>
</event>
<event>
 6      1 +2.5196620e+02 1.90143900e+02 7.54677100e-03 1.15987100e-01
       21 -1    0    0  501  502 +0.0000000000e+00 +0.0000000000e+00 +1.0672513380e+02 1.0672513380e+02 0.0000000000e+00 0.0000e+00 -1.0000e+00
       21 -1    0    0  504  503 -0.0000000000e+00 -0.0000000000e+00 -1.7234030158e+03 1.7234030158e+03 0.0000000000e+00 0.0000e+00 -1.0000e+00
        6  1    1    2  501    0 +7.8097005874e+01 -6.1204033335e+01 -6.3250650229e+02 6.6320325049e+02 1.7300000000e+02 0.0000e+00 -1.0000e+00
       -6  1    1    2    0  505 -1.0344797658e+01 -5.3493545863e+01 -1.1579079045e+02 2.1518615532e+02 1.7300000000e+02 0.0000e+00 -1.0000e+00
       21  1    1    2  504  502 -8.2677315858e+01 +1.3043494286e+02 -1.0205319495e+02 1.8510447719e+02 0.0000000000e+00 0.0000e+00 -1.0000e+00
       21  1    1    2  505  503 +1.4925107642e+01 -1.5737363667e+01 -7.6632739432e+02 7.6663426660e+02 0.0000000000e+00 0.0000e+00 -1.0000e+00
<mgrwt>
<rscale>  4 0.19014390E+03</rscale>
<asrwt>0</asrwt>
<pdfrwt beam="1">  1       21 0.16419252E-01 0.19014390E+03</pdfrwt>
<pdfrwt beam="2">  1       21 0.26513892E+00 0.19014390E+03</pdfrwt>
<totfact> 0.18093488E+03</totfact>
</mgrwt>
</event>
<event>
 6      1 +2.5196620e+02 2.94233100e+02 7.54677100e-03 9.28652600e-02
       21 -1    0    0  501  502 +0.0000000000e+00 +0.0000000000e+00 +1.1794135913e+03 1.1794135913e+03 0.0000000000e+00 0.0000e+00 -1.0000e+00
       21 -1    0    0  502  503 -0.0000000000e+00 -0.0000000000e+00 -5.3532813875e+02 5.3532813875e+02 0.0000000000e+00 0.0000e+00 1.0000e+00
        6  1    1    2  501    0 -7.4816892148e+01 +2.6258658248e+02 +6.6384279346e+02 7.3835325900e+02 1.7300000000e+02 0.0000e+00 -1.0000e+00
       -6  1    1    2    0  505 +1.0033346597e+02 -1.7847402684e+02 +4.2359755835e+02 5.0128203049e+02 1.7300000000e+02 0.0000e+00 1.0000e+00
       21  1    1    2  504  503 -3.8253383563e+01 -1.1961237832e+00 -3.3927939607e+02 3.4143119462e+02 0.0000000000e+00 0.0000e+00 1.0000e+00
       21  1    1    2  505  504 +1.2736809742e+01 -8.2916431857e+01 -1.0407550323e+02 1.3367524590e+02 0.0000000000e+00 0.0000e+00 1.0000e+00
<mgrwt>
<rscale>  4 0.29423309E+03</rscale>
<asrwt>0</asrwt>
<pdfrwt beam="1">  1       21 0.18144824E+00 0.29423309E+03</pdfrwt>
<pdfrwt beam="2">  1       21 0.82358175E-01 0.29423309E+03</pdfrwt>
<totfact> 0.20589189E+02</totfact>
</mgrwt>
</event>
<event>
 6      1 +2.5196620e+02 2.40202600e+02 7.54677100e-03 1.06301000e-01
       21 -1    0    0  505  502 +0.0000000000e+00 +0.0000000000e+00 +4.7041108702e+02 4.7041108702e+02 0.0000000000e+00 0.0000e+00 1.0000e+00
       21 -1    0    0  501  503 -0.0000000000e+00 -0.0000000000e+00 -2.3363806942e+02 2.3363806942e+02 0.0000000000e+00 0.0000e+00 -1.0000e+00
        6  1    1    2  501    0 +5.3409448475e+01 -1.5709230071e+02 -6.5196258955e+01 2.4841520145e+02 1.7300000000e+02 0.0000e+00 -1.0000e+00
       -6  1    1    2    0  502 +6.6889361654e-03 +1.7482482008e+02 +1.4846998786e+02 2.8729088927e+02 1.7300000000e+02 0.0000e+00 1.0000e+00
       21  1    1    2  504  503 -2.5581795470e+01 -3.1631364906e+00 +2.4461759117e+01 3.5536057055e+01 0.0000000000e+00 0.0000e+00 1.0000e+00
       21  1    1    2  505  504 -2.7834341941e+01 -1.4569382882e+01 +1.2903752959e+02 1.3280700866e+02 0.0000000000e+00 0.0000e+00 1.0000e+00
<mgrwt>
<rscale>  4 0.24020257E+03</rscale>
<asrwt>0</asrwt>
<pdfrwt beam="1">  1       21 0.72370936E-01 0.24020257E+03</pdfrwt>
<pdfrwt beam="2">  1       21 0.35944318E-01 0.24020257E+03</pdfrwt>
<totfact> 0.12477472E+04</totfact>
</mgrwt>
</event>
<event>
 6      1 +2.5196620e+02 1.89239200e+02 7.54677100e-03 1.09079000e-01
       21 -1    0    0  505  502 +0.0000000000e+00 +0.0000000000e+00 +5.1489237175e+02 5.1489237175e+02 0.0000000000e+00 0.0000e+00 1.0000e+00
       21 -1    0    0  502  503 -0.0000000000e+00 -0.0000000000e+00 -2.6573019887e+02 2.6573019887e+02 0.0000000000e+00 0.0000e+00 1.0000e+00
        6  1    1    2  501    0 +4.8091985316e+01 -2.7199994061e+01 -3.0695663935e+01 1.8418442527e+02 1.7300000000e+02 0.0000e+00 1.0000e+00
       -6  1    1    2    0  504 -3.8956592336e+01 +1.1021445260e+02 -3.1522817734e+01 2.1115759443e+02 1.7300000000e+02 0.0000e+00 -1.0000e+00
       21  1    1    2  504  503 -2.7112274169e+00 +3.2918424471e+01 -1.6877584561e+01 3.7092132378e+01 0.0000000000e+00 0.0000e+00 1.0000e+00
       21  1    1    2  505  501 -6.4241655635e+00 -1.1593288301e+02 +3.2825823910e+02 3.4818841854e+02 0.0000000000e+00 0.0000e+00 1.0000e+00
<mgrwt>
<rscale>  4 0.18923916E+03</rscale>
<asrwt>0</asrwt>
<pdfrwt beam="1">  1       21 0.79214211E-01 0.18923916E+03</pdfrwt>
<pdfrwt beam="2">  1       21 0.40881569E-01 0.18923916E+03</pdfrwt>
<totfact> 0.81256737E+03</totfact>
</mgrwt>
</event>
<event>
 6      1 +2.5196620e+02 1.82323800e+02 7.54677100e-03 1.16321900e-01
       21 -1    0    0  504  502 +0.0000000000e+00 +0.0000000000e+00 +5.2093225381e+02 5.2093225381e+02 0.0000000000e+00 0.0000e+00 1.0000e+00
       21 -1    0    0  501  503 -0.0000000000e+00 -0.0000000000e+00 -2.7108756465e+02 2.7108756465e+02 0.0000000000e+00 0.0000e+00 -1.0000e+00
        6  1    1    2  501    0 -1.5391277165e+02 -2.4485709132e+01 +7.9865734131e+01 2.4616300842e+02 1.7300000000e+02 0.0000e+00 -1.0000e+00
       -6  1    1    2    0  502 +3.2503780726e+00 +4.8123507325e+01 +2.8886919054e+02 3.4014827085e+02 1.7300000000e+02 0.0000e+00 1.0000e+00
       21  1    1    2  504  505 +1.2567203186e+02 -1.1398389679e+01 -5.8239963925e+01 1.3897940954e+02 0.0000000000e+00 0.0000e+00 -1.0000e+00
       21  1    1    2  505  503 +2.4990361717e+01 -1.2239408515e+01 -6.0650271587e+01 6.6729129644e+01 0.0000000000e+00 0.0000e+00 1.0000e+00
<mgrwt>
<rscale>  4 0.18232381E+03</rscale>
<asrwt>0</asrwt>
<pdfrwt beam="1">  1       21 0.80143424E-01 0.18232381E+03</pdfrwt>
<pdfrwt beam="2">  1       21 0.41705779E-01 0.18232381E+03</pdfrwt>
<totfact> 0.76391405E+03</totfact>
</mgrwt>
</event>
<event>
 6      1 +2.5196620e+02 2.87093200e+02 7.54677100e-03 9.49153200e-02
       21 -1    0    0  503  502 +0.0000000000e+00 +0.0000000000e+00 +1.6508630650e+03 1.6508630650e+03 0.0000000000e+00 0.0000e+00 -1.0000e+00
       21 -1    0    0  504  503 -0.0000000000e+00 -0.0000000000e+00 -7.7472055895e+02 7.7472055895e+02 0.0000000000e+00 0.0000e+00 1.0000e+00
        6  1    1    2  501    0 -1.9813301237e+02 -3.2419468054e+01 +5.0400029890e+02 5.6943218542e+02 1.7300000000e+02 0.0000e+00 -1.0000e+00
       -6  1    1    2    0  505 +2.6552920337e+02 -2.4243221323e+00 +4.7004147929e+02 5.6690354332e+02 1.7300000000e+02 0.0000e+00 -1.0000e+00
       21  1    1    2  504  501 -4.6893328708e+01 -7.7823472086e+00 -6.9181773059e+02 6.9344886009e+02 0.0000000000e+00 0.0000e+00 1.0000e+00
       21  1    1    2  505  502 -2.0502862290e+01 +4.2626137395e+01 +5.9391845845e+02 5.9579903511e+02 0.0000000000e+00 0.0000e+00 -1.0000e+00
<mgrwt>
<rscale>  4 0.28709316E+03</rscale>
<asrwt>0</asrwt>
<pdfrwt beam="1">  1       21 0.25397893E+00 0.28709316E+03</pdfrwt>
<pdfrwt beam="2">  1       21 0.11918778E+00 0.28709316E+03</pdfrwt>
<totfact> 0.29660147E+01</totfact>
</mgrwt>
</event>
<event>
 6      1 +2.5196620e+02 2.38763700e+02 7.54677100e-03 1.16128000e-01
       21 -1    0    0  501  502 +0.0000000000e+00 +0.0000000000e+00 +6.1774338140e+01 6.1774338140e+01 0.0000000000e+00 0.0000e+00 1.0000e+00
       21 -1    0    0  502  503 -0.0000000000e+00 -0.0000000000e+00 -1.3922105643e+03 1.3922105643e+03 0.0000000000e+00 0.0000e+00 1.0000e+00
        6  1    1    2  501    0 -1.4722723405e+02 +2.1550095440e+01 -3.3205656243e+02 4.0290299789e+02 1.7300000000e+02 0.0000e+00 1.0000e+00
       -6  1    1    2    0  504 +1.8965037145e+02 -4.8770999926e+01 -6.8961359076e+02 7.3745628914e+02 1.7300000000e+02 0.0000e+00 1.0000e+00
       21  1    1    2  504  505 -9.3486753785e+00 +1.8518055971e+01 -1.1006851071e+02 1.1200621937e+02 0.0000000000e+00 0.0000e+00 -1.0000e+00
       21  1    1    2  505  503 -3.3074462023e+01 +8.7028485146e+00 -1.9869756221e+02 2.0161939599e+02 0.0000000000e+00 0.0000e+00 -1.0000e+00
<mgrwt>
<rscale>  4 0.23876371E+03</rscale>
<asrwt>0</asrwt>
<pdfrwt beam="1">  1       21 0.95037446E-02 0.23876371E+03</pdfrwt>
<pdfrwt beam="2">  1       21 0.21418623E+00 0.23876371E+03</pdfrwt>
<totfact> 0.93433786E+03</totfact>
</mgrwt>
</event>
<event>
 6      1 +2.5196620e+02 1.80035700e+02 7.54677100e-03 1.16321900e-01
       21 -1    0    0  504  502 +0.0000000000e+00 +0.0000000000e+00 +7.0028232752e+02 7.0028232752e+02 0.0000000000e+00 0.0000e+00 1.0000e+00
       21 -1    0    0  505  503 -0.0000000000e+00 -0.0000000000e+00 -1.7881976608e+02 1.7881976608e+02 0.0000000000e+00 0.0000e+00 1.0000e+00
        6  1    1    2  501    0 -9.2920397586e+01 +5.4791823243e+01 +3.6230120085e+02 4.1572527506e+02 1.7300000000e+02 0.0000e+00 1.0000e+00
       -6  1    1    2    0  502 -4.2802903693e+01 -1.1806622791e+01 +1.9228510721e+02 2.6243865447e+02 1.7300000000e+02 0.0000e+00 1.0000e+00
       21  1    1    2  504  503 +1.5860708601e+02 -1.1186206776e+01 -2.7420139248e+01 1.6134808022e+02 0.0000000000e+00 0.0000e+00 1.0000e+00
       21  1    1    2  505  501 -2.2883784729e+01 -3.1798993676e+01 -5.7036073683e+00 3.9590083851e+01 0.0000000000e+00 0.0000e+00 1.0000e+00
<mgrwt>
<rscale>  4 0.18003566E+03</rscale>
<asrwt>0</asrwt>
<pdfrwt beam="1">  1       21 0.10773574E+00 0.18003566E+03</pdfrwt>
<pdfrwt beam="2">  1       21 0.27510734E-01 0.18003566E+03</pdfrwt>
<totfact> 0.87378504E+03</totfact>
</mgrwt>
</event>
<event>
 6      1 +2.5196620e+02 2.16572200e+02 7.54677100e-03 1.15334700e-01
       21 -1    0    0  505  502 +0.0000000000e+00 +0.0000000000e+00 +3.5628002817e+02 3.5628002817e+02 0.0000000000e+00 0.0000e+00 -1.0000e+00
       21 -1    0    0  501  503 -0.0000000000e+00 -0.0000000000e+00 -2.6138763375e+02 2.6138763375e+02 0.0000000000e+00 0.0000e+00 -1.0000e+00
        6  1    1    2  501    0 +1.0484866329e+01 +1.3295000676e+02 -9.1415060340e+01 2.3679389768e+02 1.7300000000e+02 0.0000e+00 -1.0000e+00
       -6  1    1    2    0  504 +1.6015982456e+01 -1.2903332660e+02 +2.1387181535e+02 3.0426347869e+02 1.7300000000e+02 0.0000e+00 -1.0000e+00
       21  1    1    2  504  502 +1.1547637398e+01 -2.2688608830e+01 +9.7593829543e-01 2.5476918096e+01 0.0000000000e+00 0.0000e+00 1.0000e+00
       21  1    1    2  505  503 -3.8048486184e+01 +1.8771928669e+01 -2.8540298887e+01 5.1133367456e+01 0.0000000000e+00 0.0000e+00 1.0000e+00
<mgrwt>
<rscale>  4 0.21657223E+03</rscale>
<asrwt>0</asrwt>
<pdfrwt beam="1">  1       21 0.54812312E-01 0.21657223E+03</pdfrwt>
<pdfrwt beam="2">  1       21 0.40213482E-01 0.21657223E+03</pdfrwt>
<totfact> 0.18456997E+04</totfact>
</mgrwt>
</event>
<event>
 6      1 +2.5196620e+02 1.92564800e+02 7.54677100e-03 1.06301000e-01
       21 -1    0    0  501  502 +0.0000000000e+00 +0.0000000000e+00 +1.9974606970e+02 1.9974606970e+02 0.0000000000e+00 0.0000e+00 1.0000e+00
       21 -1    0    0  505  503 -0.0000000000e+00 -0.0000000000e+00 -3.1697350989e+02 3.1697350989e+02 0.0000000000e+00 0.0000e+00 1.0000e+00
        6  1    1    2  501    0 -1.1413270732e+01 -8.5693187297e+01 -5.5093812607e-01 1.9339826429e+02 1.7300000000e+02 0.0000e+00 1.0000e+00
       -6  1    1    2    0  504 -3.3583486543e+01 +7.9637666489e+01 -3.0750420334e+01 1.9581776437e+02 1.7300000000e+02 0.0000e+00 1.0000e+00
       21  1    1    2  504  503 +2.3481963141e+01 +2.7184809689e+01 -9.0159849059e+01 9.7052639599e+01 0.0000000000e+00 0.0000e+00 1.0000e+00
       21  1    1    2  505  502 +2.1514794133e+01 -2.1129288880e+01 +4.2337673269e+00 3.0450911332e+01 0.0000000000e+00 0.0000e+00 1.0000e+00
<mgrwt>
<rscale>  4 0.19256479E+03</rscale>
<asrwt>0</asrwt>
<pdfrwt beam="1">  1       21 0.30730165E-01 0.19256479E+03</pdfrwt>
<pdfrwt beam="2">  1       21 0.48765155E-01 0.19256479E+03</pdfrwt>
<totfact> 0.40817195E+04</totfact>
</mgrwt>
</event>
<event>
 6      1 +2.5196620e+02 3.19587600e+02 7.54677100e-03 1.09711200e-01
       21 -1    0    0  501  502 +0.0000000000e+00 +0.0000000000e+00 +2.1433149095e+03 2.1433149095e+03 0.0000000000e+00 0.0000e+00 1.0000e+00
       21 -1    0    0  505  503 -0.0000000000e+00 -0.0000000000e+00 -5.7975562635e+02 5.7975562635e+02 0.0000000000e+00 0.0000e+00 1.0000e+00
        6  1    1    2  501    0 -4.0715084736e+01 +2.5580064824e+02 +1.4841715443e+03 1.5165044882e+03 1.7300000000e+02 0.0000e+00 1.0000e+00
       -6  1    1    2    0  503 -4.7308030639e+01 +2.2844397642e+01 -5.1244635251e+02 5.4340609168e+02 1.7300000000e+02 0.0000e+00 1.0000e+00
       21  1    1    2  504  502 -3.5637945403e-02 -2.0035765384e+01 +8.5621924748e+01 8.7934902980e+01 0.0000000000e+00 0.0000e+00 1.0000e+00
       21  1    1    2  505  504 +8.8058753320e+01 -2.5860928050e+02 +5.0621216664e+02 5.7522505304e+02 0.0000000000e+00 0.0000e+00 1.0000e+00
<mgrwt>
<rscale>  4 0.27716764E+03</rscale>
<asrwt>0</asrwt>
<pdfrwt beam="1">  1       21 0.32974075E+00 0.31958762E+03</pdfrwt>
<pdfrwt beam="2">  1       21 0.89193174E-01 0.31958762E+03</pdfrwt>
<totfact> 0.20517609E+01</totfact>
</mgrwt>
</event>
<event>
 6      1 +2.5196620e+02 2.70857400e+02 7.54677100e-03 1.11396600e-01
       21 -1    0    0  505  502 +0.0000000000e+00 +0.0000000000e+00 +4.2438369284e+02 4.2438369284e+02 0.0000000000e+00 0.0000e+00 -1.0000e+00
       21 -1    0    0  501  503 -0.0000000000e+00 -0.0000000000e+00 -6.8558024971e+02 6.8558024971e+02 0.0000000000e+00 0.0000e+00 1.0000e+00
        6  1    1    2  501    0 +7.2387244376e+01 +1.9644619067e+02 -4.8652458986e+02 5.5719493493e+02 1.7300000000e+02 0.0000e+00 1.0000e+00
       -6  1    1    2    0  502 -1.4919087408e+02 +3.9131120189e+01 +1.2243163514e+02 2.6212147329e+02 1.7300000000e+02 0.0000e+00 -1.0000e+00
       21  1    1    2  504  503 +1.0040440527e+02 -1.7921695406e+02 +1.0242279129e+02 2.2954343684e+02 0.0000000000e+00 0.0000e+00 -1.0000e+00
       21  1    1    2  505  504 -2.3600775558e+01 -5.6360356804e+01 +4.7360654959e-01 6.1104097483e+01 0.0000000000e+00 0.0000e+00 -1.0000e+00
<mgrwt>
<rscale>  4 0.26050776E+03</rscale>
<asrwt>0</asrwt>
<pdfrwt beam="1">  1       21 0.65289799E-01 0.27085739E+03</pdfrwt>
<pdfrwt beam="2">  1       21 0.10547388E+00 0.27085739E+03</pdfrwt>
<totfact> 0.14634703E+03</totfact>
</mgrwt>
</event>
<event>
 6      1 +2.5196620e+02 2.42883000e+02 7.54677100e-03 1.06301000e-01
       21 -1    0    0  505  502 +0.0000000000e+00 +0.0000000000e+00 +1.9519085297e+03 1.9519085297e+03 0.0000000000e+00 0.0000e+00 -1.0000e+00
       21 -1    0    0  504  503 -0.0000000000e+00 -0.0000000000e+00 -1.5537537099e+02 1.5537537099e+02 0.0000000000e+00 0.0000e+00 -1.0000e+00
        6  1    1    2  501    0 -1.0186851330e+02 -1.3503174946e+02 +1.2023853851e+03 1.2264870084e+03 1.7300000000e+02 0.0000e+00 -1.0000e+00
       -6  1    1    2    0  502 +1.4440459736e+02 +1.0513478292e+02 +5.6076808047e+02 6.1342958063e+02 1.7300000000e+02 0.0000e+00 -1.0000e+00
       21  1    1    2  504  501 -1.1227430204e+02 -5.2460383232e+01 -4.7278742983e+01 1.3263819301e+02 0.0000000000e+00 0.0000e+00 -1.0000e+00
       21  1    1    2  505  503 +6.9738217977e+01 +8.2357349771e+01 +8.0658436125e+01 1.3472911870e+02 0.0000000000e+00 0.0000e+00 1.0000e+00
<mgrwt>
<rscale>  4 0.24288299E+03</rscale>
<asrwt>0</asrwt>
<pdfrwt beam="1">  1       21 0.30029360E+00 0.24288299E+03</pdfrwt>
<pdfrwt beam="2">  1       21 0.23903905E-01 0.24288299E+03</pdfrwt>
<totfact> 0.52603051E+02</totfact>
</mgrwt>
</event>
<event>
 6      1 +2.5196620e+02 2.37829500e+02 7.54677100e-03 9.49153200e-02
       21 -1    0    0  504  502 +0.0000000000e+00 +0.0000000000e+00 +2.0531771952e+03 2.0531771952e+03 0.0000000000e+00 0.0000e+00 -1.0000e+00
       21 -1    0    0  501  503 -0.0000000000e+00 -0.0000000000e+00 -1.0480568162e+03 1.0480568162e+03 0.0000000000e+00 0.0000e+00 -1.0000e+00
        6  1    1    2  501    0 -1.6296832814e+01 -8.1940988639e+01 +1.0609855012e+02 2.1946711534e+02 1.7300000000e+02 0.0000e+00 1.0000e+00
       -6  1    1    2    0  505 +4.3017635691e+01 +2.5409018995e+02 -6.5460491973e+01 3.1721667299e+02 1.7300000000e+02 0.0000e+00 -1.0000e+00
       21  1    1    2  504  503 +1.8192538732e+01 -8.6719223221e+01 -7.9625482101e+02 8.0116972741e+02 0.0000000000e+00 0.0000e+00 -1.0000e+00
       21  1    1    2  505  502 -4.4913341610e+01 -8.5429978093e+01 +1.7607371419e+03 1.7633804956e+03 0.0000000000e+00 0.0000e+00 -1.0000e+00
<mgrwt>
<rscale>  4 0.23782947E+03</rscale>
<asrwt>0</asrwt>
<pdfrwt beam="1">  1       21 0.31587341E+00 0.23782947E+03</pdfrwt>
<pdfrwt beam="2">  1       21 0.16123951E+00 0.23782947E+03</pdfrwt>
<totfact> 0.62539952E+00</totfact>
</mgrwt>
</event>
<event>
 6      1 +2.5196620e+02 1.92169200e+02 7.54677100e-03 1.16726300e-01
       21 -1    0    0  504  502 +0.0000000000e+00 +0.0000000000e+00 +2.3811266232e+02 2.3811266232e+02 0.0000000000e+00 0.0000e+00 1.0000e+00
       21 -1    0    0  505  503 -0.0000000000e+00 -0.0000000000e+00 -6.1265987032e+02 6.1265987032e+02 0.0000000000e+00 0.0000e+00 1.0000e+00
        6  1    1    2  501    0 +5.4111798528e+01 -7.8677715552e+01 +1.2771472386e+02 2.3528348934e+02 1.7300000000e+02 0.0000e+00 1.0000e+00
       -6  1    1    2    0  503 -7.5245127611e+01 +2.2381350806e+01 -2.7238007786e+02 3.3208833299e+02 1.7300000000e+02 0.0000e+00 -1.0000e+00
       21  1    1    2  504  501 -2.8386512855e+01 -7.3892346565e+00 +9.4667944189e+00 3.0822314927e+01 0.0000000000e+00 0.0000e+00 1.0000e+00
       21  1    1    2  505  502 +4.9519841938e+01 +6.3685599403e+01 -2.3934864841e+02 2.5257839538e+02 0.0000000000e+00 0.0000e+00 1.0000e+00
<mgrwt>
<rscale>  4 0.19216921E+03</rscale>
<asrwt>0</asrwt>
<pdfrwt beam="1">  1       21 0.36632718E-01 0.19216921E+03</pdfrwt>
<pdfrwt beam="2">  1       21 0.94255364E-01 0.19216921E+03</pdfrwt>
<totfact> 0.67838448E+03</totfact>
</mgrwt>
</event>
<event>
 6      1 +2.5196620e+02 1.88288900e+02 7.54677100e-03 1.16128000e-01
       21 -1    0    0  501  502 +0.0000000000e+00 +0.0000000000e+00 +1.6294707425e+03 1.6294707425e+03 0.0000000000e+00 0.0000e+00 -1.0000e+00
       21 -1    0    0  502  503 -0.0000000000e+00 -0.0000000000e+00 -2.4833555520e+02 2.4833555520e+02 0.0000000000e+00 0.0000e+00 1.0000e+00
        6  1    1    2  501    0 +9.4056803048e+01 -1.0929377991e+02 +1.0547551386e+03 1.0785310449e+03 1.7300000000e+02 0.0000e+00 -1.0000e+00
       -6  1    1    2    0  504 +6.0637821368e+01 +1.3686167688e+01 +5.0839168574e+02 5.4060647675e+02 1.7300000000e+02 0.0000e+00 -1.0000e+00
       21  1    1    2  504  505 -1.3520350452e+02 +8.1142274596e+01 -1.4384154396e+02 2.1343487561e+02 0.0000000000e+00 0.0000e+00 1.0000e+00
       21  1    1    2  505  503 -1.9491119900e+01 +1.4465337628e+01 -3.8170093024e+01 4.5233900441e+01 0.0000000000e+00 0.0000e+00 1.0000e+00
<mgrwt>
<rscale>  4 0.18828886E+03</rscale>
<asrwt>0</asrwt>
<pdfrwt beam="1">  1       21 0.25068780E+00 0.18828886E+03</pdfrwt>
<pdfrwt beam="2">  1       21 0.38205471E-01 0.18828886E+03</pdfrwt>
<totfact> 0.43783885E+02</totfact>
</mgrwt>
</event>
<event>
 6      1 +2.5196620e+02 2.81695400e+02 7.54677100e-03 1.16321900e-01
       21 -1    0    0  505  502 +0.0000000000e+00 +0.0000000000e+00 +7.9695770875e+02 7.9695770875e+02 0.0000000000e+00 0.0000e+00 -1.0000e+00
       21 -1    0    0  504  503 -0.0000000000e+00 -0.0000000000e+00 -1.8464052286e+03 1.8464052286e+03 0.0000000000e+00 0.0000e+00 -1.0000e+00
        6  1    1    2  501    0 -1.9346029937e+02 -9.9066507109e+01 +5.7689006499e+02 6.4029072096e+02 1.7300000000e+02 0.0000e+00 -1.0000e+00
       -6  1    1    2    0  502 +5.8676722910e+01 -9.6470302779e+01 +9.7895873412e+01 2.2860900936e+02 1.7300000000e+02 0.0000e+00 -1.0000e+00
       21  1    1    2  504  501 +3.4306216710e-01 +7.3252804279e+01 -1.4066617208e+03 1.4085678144e+03 0.0000000000e+00 0.0000e+00 -1.0000e+00
       21  1    1    2  505  503 +1.3444051429e+02 +1.2228400561e+02 -3.1757173744e+02 3.6589539261e+02 0.0000000000e+00 0.0000e+00 -1.0000e+00
<mgrwt>
<rscale>  4 0.25913849E+03</rscale>
<asrwt>0</asrwt>
<pdfrwt beam="1">  1       21 0.12260888E+00 0.28169536E+03</pdfrwt>
<pdfrwt beam="2">  1       21 0.28406234E+00 0.28169536E+03</pdfrwt>
<totfact> 0.18438082E+01</totfact>
</mgrwt>
</event>
<event>
 6      1 +2.5196620e+02 2.26338400e+02 7.54677100e-03 1.07655700e-01
       21 -1    0    0  501  502 +0.0000000000e+00 +0.0000000000e+00 +9.8849489356e+02 9.8849489356e+02 0.0000000000e+00 0.0000e+00 1.0000e+00
       21 -1    0    0  504  503 -0.0000000000e+00 -0.0000000000e+00 -1.4201047455e+02 1.4201047455e+02 0.0000000000e+00 0.0000e+00 1.0000e+00
        6  1    1    2  501    0 -1.0912006156e+02 +5.4662368118e+01 +3.4894778397e+02 4.0815281239e+02 1.7300000000e+02 0.0000e+00 1.0000e+00
       -6  1    1    2    0  505 +8.1783571939e+01 -1.7824960736e+02 +4.1459422319e+02 4.9018246100e+02 1.7300000000e+02 0.0000e+00 1.0000e+00
       21  1    1    2  504  502 -5.9080723365e+01 +9.7619476548e+01 +8.4393806626e+01 1.4192395383e+02 0.0000000000e+00 0.0000e+00 1.0000e+00
       21  1    1    2  505  503 +8.6417212985e+01 +2.5967762695e+01 -1.4513947680e+00 9.0246140894e+01 0.0000000000e+00 0.0000e+00 1.0000e+00
<mgrwt>
<rscale>  4 0.22633836E+03</rscale>
<asrwt>0</asrwt>
<pdfrwt beam="1">  1       21 0.15207613E+00 0.22633836E+03</pdfrwt>
<pdfrwt beam="2">  1       21 0.21847766E-01 0.22633836E+03</pdfrwt>
<totfact> 0.54891797E+03</totfact>
</mgrwt>
</event>
<event>
 6      1 +2.5196620e+02 1.93076700e+02 7.54677100e-03 1.12691600e-01
       21 -1    0    0  505  502 +0.0000000000e+00 +0.0000000000e+00 +4.1416964055e+02 4.1416964055e+02 0.0000000000e+00 0.0000e+00 1.0000e+00
       21 -1    0    0  504  503 -0.0000000000e+00 -0.0000000000e+00 -4.8894932880e+02 4.8894932880e+02 0.0000000000e+00 0.0000e+00 1.0000e+00
        6  1    1    2  501    0 +3.7204603840e+01 -6.9628215384e+01 +7.9883936669e+01 2.0625885257e+02 1.7300000000e+02 0.0000e+00 1.0000e+00
       -6  1    1    2    0  503 -7.9156030895e+01 +4.0182253187e+01 -3.9946807058e+02 4.4427922539e+02 1.7300000000e+02 0.0000e+00 1.0000e+00
       21  1    1    2  504  502 +1.2251594721e+01 +2.0242445282e+01 +1.6898530530e+02 1.7063379375e+02 0.0000000000e+00 0.0000e+00 1.0000e+00
       21  1    1    2  505  501 +2.9699832334e+01 +9.2035169151e+00 +7.5819140369e+01 8.1947097634e+01 0.0000000000e+00 0.0000e+00 1.0000e+00
<mgrwt>
<rscale>  4 0.19307671E+03</rscale>
<asrwt>0</asrwt>
<pdfrwt beam="1">  1       21 0.63718407E-01 0.19307671E+03</pdfrwt>
<pdfrwt beam="2">  1       21 0.75222973E-01 0.19307671E+03</pdfrwt>
<totfact> 0.35935319E+03</totfact>
</mgrwt>
</event>
<event>
 6      1 +2.5196620e+02 2.64380400e+02 7.54677100e-03 1.09079000e-01
       21 -1    0    0  505  502 +0.0000000000e+00 +0.0000000000e+00 +9.5465274873e+02 9.5465274873e+02 0.0000000000e+00 0.0000e+00 1.0000e+00
       21 -1    0    0  501  503 -0.0000000000e+00 -0.0000000000e+00 -2.2357245770e+02 2.2357245770e+02 0.0000000000e+00 0.0000e+00 1.0000e+00
        6  1    1    2  501    0 -5.7568294821e+01 -2.3834439090e+02 +3.7667927421e+01 3.0244012630e+02 1.7300000000e+02 0.0000e+00 1.0000e+00
       -6  1    1    2    0  504 +7.4287357232e+00 +1.5813563466e+02 +7.8175615006e+01 2.4718918230e+02 1.7300000000e+02 0.0000e+00 1.0000e+00
       21  1    1    2  504  502 +4.8783264970e+00 +2.7346405373e+01 +3.7419900478e+01 4.6603357261e+01 0.0000000000e+00 0.0000e+00 1.0000e+00
       21  1    1    2  505  503 +4.5261232601e+01 +5.2862350867e+01 +5.7781684812e+02 5.8199254058e+02 0.0000000000e+00 0.0000e+00 1.0000e+00
<mgrwt>
<rscale>  4 0.26438038E+03</rscale>
<asrwt>0</asrwt>
<pdfrwt beam="1">  1       21 0.14686965E+00 0.26438038E+03</pdfrwt>
<pdfrwt beam="2">  1       21 0.34395763E-01 0.26438038E+03</pdfrwt>
<totfact> 0.24288814E+03</totfact>
</mgrwt>
</event>
<event>
 6      1 +2.5196620e+02 1.94175800e+02 7.54677100e-03 1.07655700e-01
       21 -1    0    0  501  502 +0.0000000000e+00 +0.0000000000e+00 +1.9238368714e+03 1.9238368714e+03 0.0000000000e+00 0.0000e+00 -1.0000e+00
       21 -1    0    0  502  503 -0.0000000000e+00 -0.0000000000e+00 -1.0267156140e+02 1.0267156140e+02 0.0000000000e+00 0.0000e+00 -1.0000e+00
        6  1    1    2  501    0 +8.7006388125e+00 +1.3811042844e+02 +8.3611859029e+02 8.6497022410e+02 1.7300000000e+02 0.0000e+00 -1.0000e+00
       -6  1    1    2    0  505 -3.7264839614e+01 -5.1549707188e+01 +9.6862589977e+02 9.8600769484e+02 1.7300000000e+02 0.0000e+00 1.0000e+00
       21  1    1    2  504  503 +9.6820732032e+00 -4.0914591653e+01 -6.6696326840e+01 7.8842541597e+01 0.0000000000e+00 0.0000e+00 -1.0000e+00
       21  1    1    2  505  504 +1.8882127598e+01 -4.5646129595e+01 +8.3117146804e+01 9.6687972275e+01 0.0000000000e+00 0.0000e+00 -1.0000e+00
<mgrwt>
<rscale>  4 0.19417577E+03</rscale>
<asrwt>0</asrwt>
<pdfrwt beam="1">  1       21 0.29597488E+00 0.19417577E+03</pdfrwt>
<pdfrwt beam="2">  1       21 0.15795626E-01 0.19417577E+03</pdfrwt>
<totfact> 0.12827459E+03</totfact>
</mgrwt>
</event>
<event>
 6      1 +2.5196620e+02 2.01076000e+02 7.54677100e-03 1.07655700e-01
       21 -1    0    0  501  502 +0.0000000000e+00 +0.0000000000e+00 +4.1205283843e+02 4.1205283843e+02 0.0000000000e+00 0.0000e+00 -1.0000e+00
       21 -1    0    0  504  503 -0.0000000000e+00 -0.0000000000e+00 -1.4293251600e+03 1.4293251600e+03 0.0000000000e+00 0.0000e+00 1.0000e+00
        6  1    1    2  501    0 -2.2019540999e+01 +4.2315169399e+01 +1.1764701977e+02 2.1458158124e+02 1.7300000000e+02 0.0000e+00 -1.0000e+00
       -6  1    1    2    0  505 -2.5569228222e+01 -1.9535084196e+02 +1.5446892107e+02 3.0431132819e+02 1.7300000000e+02 0.0000e+00 -1.0000e+00
       21  1    1    2  504  502 +1.4660486772e-01 +1.5329603572e+02 -1.2539048113e+03 1.2632406627e+03 0.0000000000e+00 0.0000e+00 1.0000e+00
       21  1    1    2  505  503 +4.7442164352e+01 -2.6036316095e-01 -3.5483451100e+01 5.9244426315e+01 0.0000000000e+00 0.0000e+00 -1.0000e+00
<mgrwt>
<rscale>  4 0.20107597E+03</rscale>
<asrwt>0</asrwt>
<pdfrwt beam="1">  1       21 0.63392743E-01 0.20107597E+03</pdfrwt>
<pdfrwt beam="2">  1       21 0.21989618E+00 0.20107597E+03</pdfrwt>
<totfact> 0.22924489E+02</totfact>
</mgrwt>
</event>
<event>
 6      1 +2.5196620e+02 2.09344700e+02 7.54677100e-03 9.49153200e-02
       21 -1    0    0  504  502 +0.0000000000e+00 +0.0000000000e+00 +1.8409794629e+03 1.8409794629e+03 0.0000000000e+00 0.0000e+00 1.0000e+00
       21 -1    0    0  501  503 -0.0000000000e+00 -0.0000000000e+00 -1.0799875403e+02 1.0799875403e+02 0.0000000000e+00 0.0000e+00 -1.0000e+00
        6  1    1    2  501    0 +1.2012851916e+02 -6.2308647120e+00 +5.6087866886e+01 2.1804709033e+02 1.7300000000e+02 0.0000e+00 -1.0000e+00
       -6  1    1    2    0  505 -1.6683082235e+02 +8.6761797432e+01 +1.2896173703e+03 1.3146870710e+03 1.7300000000e+02 0.0000e+00 1.0000e+00
       21  1    1    2  504  503 -1.5532606153e+01 -2.3378865048e+01 +1.0273770660e+01 2.9889522385e+01 0.0000000000e+00 0.0000e+00 1.0000e+00
       21  1    1    2  505  502 +6.2234909335e+01 -5.7152067672e+01 +3.7700170104e+02 3.8635453325e+02 0.0000000000e+00 0.0000e+00 1.0000e+00
<mgrwt>
<rscale>  4 0.20934470E+03</rscale>
<asrwt>0</asrwt>
<pdfrwt beam="1">  1       21 0.28322759E+00 0.20934470E+03</pdfrwt>
<pdfrwt beam="2">  1       21 0.16615194E-01 0.20934470E+03</pdfrwt>
<totfact> 0.13590685E+03</totfact>
</mgrwt>
</event>
<event>
 6      1 +2.5196620e+02 1.95781600e+02 7.54677100e-03 9.49153200e-02
       21 -1    0    0  504  502 +0.0000000000e+00 +0.0000000000e+00 +1.7291174904e+03 1.7291174904e+03 0.0000000000e+00 0.0000e+00 1.0000e+00
       21 -1    0    0  501  503 -0.0000000000e+00 -0.0000000000e+00 -1.2095886669e+02 1.2095886669e+02 0.0000000000e+00 0.0000e+00 1.0000e+00
        6  1    1    2  501    0 -4.4332806812e+01 +7.2746385214e+01 +1.1906706769e+01 1.9320508272e+02 1.7300000000e+02 0.0000e+00 1.0000e+00
       -6  1    1    2    0  505 +1.2529702486e+02 -6.9510647119e+01 +5.6489211065e+02 6.0791707590e+02 1.7300000000e+02 0.0000e+00 1.0000e+00
       21  1    1    2  504  503 -7.3285653155e+01 +2.5038776248e+01 +1.6684293062e+02 1.8394099807e+02 0.0000000000e+00 0.0000e+00 -1.0000e+00
       21  1    1    2  505  502 -7.6785648928e+00 -2.8274514343e+01 +8.6451687570e+02 8.6501320041e+02 0.0000000000e+00 0.0000e+00 1.0000e+00
<mgrwt>
<rscale>  4 0.19578161E+03</rscale>
<asrwt>0</asrwt>
<pdfrwt beam="1">  1       21 0.26601806E+00 0.19578161E+03</pdfrwt>
<pdfrwt beam="2">  1       21 0.18609058E-01 0.19578161E+03</pdfrwt>
<totfact> 0.14098087E+03</totfact>
</mgrwt>
</event>
<event>
 6      1 +2.5196620e+02 2.91032700e+02 7.54677100e-03 1.13287100e-01
       21 -1    0    0  505  502 +0.0000000000e+00 +0.0000000000e+00 +2.9790680288e+02 2.9790680288e+02 0.0000000000e+00 0.0000e+00 1.0000e+00
       21 -1    0    0  502  503 -0.0000000000e+00 -0.0000000000e+00 -1.6637524215e+03 1.6637524215e+03 0.0000000000e+00 0.0000e+00 -1.0000e+00
        6  1    1    2  501    0 -7.1002805831e+01 -2.7763248461e+02 +1.2115184609e+02 3.5598871437e+02 1.7300000000e+02 0.0000e+00 1.0000e+00
       -6  1    1    2    0  503 +1.3538515273e+02 +1.8837824225e+02 -1.4482024863e+03 1.4768327404e+03 1.7300000000e+02 0.0000e+00 -1.0000e+00
       21  1    1    2  504  501 -4.0279204427e+01 +8.2981014446e+01 -4.5772477586e+01 1.0297272829e+02 0.0000000000e+00 0.0000e+00 1.0000e+00
       21  1    1    2  505  504 -2.4103142474e+01 +6.2732279236e+00 +6.9774992133e+00 2.5865041291e+01 0.0000000000e+00 0.0000e+00 -1.0000e+00
<mgrwt>
<rscale>  4 0.29103269E+03</rscale>
<asrwt>0</asrwt>
<pdfrwt beam="1">  1       21 0.45831817E-01 0.29103269E+03</pdfrwt>
<pdfrwt beam="2">  1       21 0.25596191E+00 0.29103269E+03</pdfrwt>
<totfact> 0.25008925E+02</totfact>
</mgrwt>
</event>
<event>
 6      1 +2.5196620e+02 2.34236400e+02 7.54677100e-03 1.09079000e-01
       21 -1    0    0  505  502 +0.0000000000e+00 +0.0000000000e+00 +2.3835227699e+03 2.3835227699e+03 0.0000000000e+00 0.0000e+00 1.0000e+00
       21 -1    0    0  501  503 -0.0000000000e+00 -0.0000000000e+00 -5.5527276511e+01 5.5527276511e+01 0.0000000000e+00 0.0000e+00 -1.0000e+00
        6  1    1    2  501    0 +1.0577518701e+01 +1.5751190760e+02 +3.4072697204e+02 4.1345586755e+02 1.7300000000e+02 0.0000e+00 -1.0000e+00
       -6  1    1    2    0  504 +2.2020625367e+01 -1.5877447723e+02 +7.8164927997e+02 8.1645504435e+02 1.7300000000e+02 0.0000e+00 -1.0000e+00
       21  1    1    2  504  502 -2.6178423742e+01 +2.0591353819e+01 +1.6537847768e+02 1.6869900593e+02 0.0000000000e+00 0.0000e+00 -1.0000e+00
       21  1    1    2  505  503 -6.4197203260e+00 -1.9328784182e+01 +1.0402407637e+03 1.0404401286e+03 0.0000000000e+00 0.0000e+00 1.0000e+00
<mgrwt>
<rscale>  4 0.23423642E+03</rscale>
<asrwt>0</asrwt>
<pdfrwt beam="1">  1       21 0.36669573E+00 0.23423642E+03</pdfrwt>
<pdfrwt beam="2">  1       21 0.85426598E-02 0.23423642E+03</pdfrwt>
<totfact> 0.14089510E+03</totfact>
</mgrwt>
</event>
<event>
 6      1 +2.5196620e+02 3.00925600e+02 7.54677100e-03 1.06301000e-01
       21 -1    0    0  501  502 +0.0000000000e+00 +0.0000000000e+00 +8.1843590408e+02 8.1843590408e+02 0.0000000000e+00 0.0000e+00 -1.0000e+00
       21 -1    0    0  505  503 -0.0000000000e+00 -0.0000000000e+00 -5.4319829621e+02 5.4319829621e+02 0.0000000000e+00 0.0000e+00 1.0000e+00
        6  1    1    2  501    0 -8.9030192124e+01 -3.4026134463e+02 +6.0794271842e+01 3.9664732604e+02 1.7300000000e+02 0.0000e+00 1.0000e+00
       -6  1    1    2    0  504 -2.5762832669e+01 +9.9218924333e+01 -1.1071605523e+02 2.2955427110e+02 1.7300000000e+02 0.0000e+00 1.0000e+00
       21  1    1    2  504  503 +2.3273576750e+01 +2.9079998634e+01 -1.7798790205e+02 1.8184333634e+02 0.0000000000e+00 0.0000e+00 1.0000e+00
       21  1    1    2  505  502 +9.1519448044e+01 +2.1196242167e+02 +5.0314729331e+02 5.5358926682e+02 0.0000000000e+00 0.0000e+00 -1.0000e+00
<mgrwt>
<rscale>  4 0.27408112E+03</rscale>
<asrwt>0</asrwt>
<pdfrwt beam="1">  1       21 0.12591322E+00 0.30092561E+03</pdfrwt>
<pdfrwt beam="2">  1       21 0.83568969E-01 0.30092561E+03</pdfrwt>
<totfact> 0.53009266E+02</totfact>
</mgrwt>
</event>
<event>
 6      1 +2.5196620e+02 2.58026500e+02 7.54677100e-03 1.14954000e-01
       21 -1    0    0  504  502 +0.0000000000e+00 +0.0000000000e+00 +2.7658101511e+02 2.7658101511e+02 0.0000000000e+00 0.0000e+00 1.0000e+00
       21 -1    0    0  502  503 -0.0000000000e+00 -0.0000000000e+00 -1.8162922988e+03 1.8162922988e+03 0.0000000000e+00 0.0000e+00 1.0000e+00
        6  1    1    2  501    0 +5.8720993763e+01 +1.5953187410e+02 -4.4056030639e+01 2.4651269297e+02 1.7300000000e+02 0.0000e+00 1.0000e+00
       -6  1    1    2    0  503 +5.6261431217e+00 -1.9467201658e+02 -1.6432333791e+03 1.6637529221e+03 1.7300000000e+02 0.0000e+00 1.0000e+00
       21  1    1    2  504  505 -6.2684206024e+01 +8.1535606681e+00 +1.4138088071e+02 1.5486879501e+02 0.0000000000e+00 0.0000e+00 1.0000e+00
       21  1    1    2  505  501 -1.6629308615e+00 +2.6986581815e+01 +6.1972453366e+00 2.7738903852e+01 0.0000000000e+00 0.0000e+00 1.0000e+00
<mgrwt>
<rscale>  4 0.25802651E+03</rscale>
<asrwt>0</asrwt>
<pdfrwt beam="1">  1       21 0.42550926E-01 0.25802651E+03</pdfrwt>
<pdfrwt beam="2">  1       21 0.27942958E+00 0.25802651E+03</pdfrwt>
<totfact> 0.21900870E+02</totfact>
</mgrwt>
</event>
<event>
 6      1 +2.5196620e+02 2.62388000e+02 7.54677100e-03 1.14954000e-01
       21 -1    0    0  505  502 +0.0000000000e+00 +0.0000000000e+00 +9.7588012271e+02 9.7588012271e+02 0.0000000000e+00 0.0000e+00 -1.0000e+00
       21 -1    0    0  502  503 -0.0000000000e+00 -0.0000000000e+00 -2.4857899927e+02 2.4857899927e+02 0.0000000000e+00 0.0000e+00 -1.0000e+00
        6  1    1    2  501    0 +2.1663491107e+02 -1.2128777937e+02 +2.4815533453e+02 3.9134572973e+02 1.7300000000e+02 0.0000e+00 -1.0000e+00
       -6  1    1    2    0  503 -4.9143662154e+01 +1.9287535266e+02 -5.2147537310e+01 2.6882032446e+02 1.7300000000e+02 0.0000e+00 -1.0000e+00
       21  1    1    2  504  501 -2.2443240351e+01 -3.0703169296e+01 +8.1769309375e+01 9.0180949196e+01 0.0000000000e+00 0.0000e+00 -1.0000e+00
       21  1    1    2  505  504 -1.4504800857e+02 -4.0884403993e+01 +4.4952401685e+02 4.7411211860e+02 0.0000000000e+00 0.0000e+00 -1.0000e+00
<mgrwt>
<rscale>  4 0.26238801E+03</rscale>
<asrwt>0</asrwt>
<pdfrwt beam="1">  1       21 0.15013540E+00 0.26238801E+03</pdfrwt>
<pdfrwt beam="2">  1       21 0.38242924E-01 0.26238801E+03</pdfrwt>
<totfact> 0.18541818E+03</totfact>
</mgrwt>
</event>
<event>
 6      1 +2.5196620e+02 2.70126100e+02 7.54677100e-03 1.16128000e-01
       21 -1    0    0  501  502 +0.0000000000e+00 +0.0000000000e+00 +8.4936480666e+02 8.4936480666e+02 0.0000000000e+00 0.0000e+00 -1.0000e+00
       21 -1    0    0  504  503 -0.0000000000e+00 -0.0000000000e+00 -1.9865078987e+02 1.9865078987e+02 0.0000000000e+00 0.0000e+00 1.0000e+00
        6  1    1    2  501    0 +8.7301524378e+01 +1.9235559947e+02 +6.4453446415e+02 6.9998279142e+02 1.7300000000e+02 0.0000e+00 -1.0000e+00
       -6  1    1    2    0  503 -9.4859261154e+01 -1.6926296515e+02 +6.2198090812e+01 2.6729353396e+02 1.7300000000e+02 0.0000e+00 1.0000e+00
       21  1    1    2  504  505 -1.0373569719e+01 -3.2448713750e+01 -4.8269405485e+01 5.9080161464e+01 0.0000000000e+00 0.0000e+00 1.0000e+00
       21  1    1    2  505  502 +1.7931306494e+01 +9.3560794233e+00 -7.7491326879e+00 2.1659109681e+01 0.0000000000e+00 0.0000e+00 1.0000e+00
<mgrwt>
<rscale>  4 0.27012615E+03</rscale>
<asrwt>0</asrwt>
<pdfrwt beam="1">  1       21 0.13067151E+00 0.27012615E+03</pdfrwt>
<pdfrwt beam="2">  1       21 0.30561660E-01 0.27012615E+03</pdfrwt>
<totfact> 0.41455653E+03</totfact>
</mgrwt>
</event>
<event>
 6      1 +2.5196620e+02 3.20353900e+02 7.54677100e-03 1.04211500e-01
       21 -1    0    0  505  502 +0.0000000000e+00 +0.0000000000e+00 +4.1935057343e+02 4.1935057343e+02 0.0000000000e+00 0.0000e+00 1.0000e+00
       21 -1    0    0  501  503 -0.0000000000e+00 -0.0000000000e+00 -5.7890429397e+02 5.7890429397e+02 0.0000000000e+00 0.0000e+00 -1.0000e+00
        6  1    1    2  501    0 +8.8919206635e+01 +2.6716589422e+02 -2.6113982763e+02 4.2119740018e+02 1.7300000000e+02 0.0000e+00 -1.0000e+00
       -6  1    1    2    0  502 -2.4615496327e+02 -1.5231586490e+02 +3.7922760709e+01 3.3935162358e+02 1.7300000000e+02 0.0000e+00 1.0000e+00
       21  1    1    2  504  503 +3.9627969563e+01 +2.0811017772e+01 -5.9221440232e+00 4.5150262704e+01 0.0000000000e+00 0.0000e+00 -1.0000e+00
       21  1    1    2  505  504 +1.1760778707e+02 -1.3566104709e+02 +6.9585490402e+01 1.9255558094e+02 0.0000000000e+00 0.0000e+00 1.0000e+00
<mgrwt>
<rscale>  4 0.32035394E+03</rscale>
<asrwt>0</asrwt>
<pdfrwt beam="1">  1       21 0.64515473E-01 0.32035394E+03</pdfrwt>
<pdfrwt beam="2">  1       21 0.89062199E-01 0.32035394E+03</pdfrwt>
<totfact> 0.21819599E+03</totfact>
</mgrwt>
</event>
<event>
 6      1 +2.5196620e+02 2.01379300e+02 7.54677100e-03 1.16321900e-01
       21 -1    0    0  503  502 +0.0000000000e+00 +0.0000000000e+00 +3.5738674902e+02 3.5738674902e+02 0.0000000000e+00 0.0000e+00 -1.0000e+00
       21 -1    0    0  505  503 -0.0000000000e+00 -0.0000000000e+00 -1.6774959323e+02 1.6774959323e+02 0.0000000000e+00 0.0000e+00 -1.0000e+00
        6  1    1    2  501    0 +1.2189361240e+02 +9.7035536322e+00 +1.0411864588e+02 2.3605487522e+02 1.7300000000e+02 0.0000e+00 -1.0000e+00
       -6  1    1    2    0  502 -8.5571630899e+01 -8.3666421284e+00 +1.0004234592e+02 2.1755453499e+02 1.7300000000e+02 0.0000e+00 -1.0000e+00
       21  1    1    2  504  501 -1.0016030069e+01 -2.8586091985e+01 +1.6680925595e+00 3.0335920064e+01 0.0000000000e+00 0.0000e+00 -1.0000e+00
       21  1    1    2  505  504 -2.6305951430e+01 +2.7249180481e+01 -1.6191928567e+01 4.1191011984e+01 0.0000000000e+00 0.0000e+00 1.0000e+00
<mgrwt>
<rscale>  4 0.20137932E+03</rscale>
<asrwt>0</asrwt>
<pdfrwt beam="1">  1       21 0.54982577E-01 0.20137932E+03</pdfrwt>
<pdfrwt beam="2">  1       21 0.25807630E-01 0.20137932E+03</pdfrwt>
<totfact> 0.44292701E+04</totfact>
</mgrwt>
</event>
<event>
 6      1 +2.5196620e+02 3.45390800e+02 7.54677100e-03 1.12691600e-01
       21 -1    0    0  505  502 +0.0000000000e+00 +0.0000000000e+00 +7.9430423534e+02 7.9430423534e+02 0.0000000000e+00 0.0000e+00 1.0000e+00
       21 -1    0    0  501  503 -0.0000000000e+00 -0.0000000000e+00 -4.1366485999e+02 4.1366485999e+02 0.0000000000e+00 0.0000e+00 -1.0000e+00
        6  1    1    2  501    0 +7.6844259671e+01 +2.8263864916e+02 -2.5228823353e+02 4.2351859348e+02 1.7300000000e+02 0.0000e+00 -1.0000e+00
       -6  1    1    2    0  504 -1.2352546775e+02 -3.1343450430e+02 +4.4379069839e+02 5.8342001478e+02 1.7300000000e+02 0.0000e+00 1.0000e+00
       21  1    1    2  504  502 +2.5589991737e+01 +1.0740187416e+01 +1.4835369611e+02 1.5092719587e+02 0.0000000000e+00 0.0000e+00 1.0000e+00
       21  1    1    2  505  503 +2.1091216341e+01 +2.0055667726e+01 +4.0783214381e+01 5.0103291209e+01 0.0000000000e+00 0.0000e+00 1.0000e+00
<mgrwt>
<rscale>  4 0.34539078E+03</rscale>
<asrwt>0</asrwt>
<pdfrwt beam="1">  1       21 0.12220065E+00 0.34539078E+03</pdfrwt>
<pdfrwt beam="2">  1       21 0.63640748E-01 0.34539078E+03</pdfrwt>
<totfact> 0.10272592E+03</totfact>
</mgrwt>
</event>
<event>
 6      1 +2.5196620e+02 3.19967300e+02 7.54677100e-03 9.49153200e-02
       21 -1    0    0  504  502 +0.0000000000e+00 +0.0000000000e+00 +2.1505618125e+03 2.1505618125e+03 0.0000000000e+00 0.0000e+00 -1.0000e+00
       21 -1    0    0  501  503 -0.0000000000e+00 -0.0000000000e+00 -2.3693810379e+03 2.3693810379e+03 0.0000000000e+00 0.0000e+00 -1.0000e+00
        6  1    1    2  501    0 +2.5217628482e+02 +9.5100152802e+01 -1.7303311389e+03 1.7597192298e+03 1.7300000000e+02 0.0000e+00 -1.0000e+00
       -6  1    1    2    0  505 -2.5850138770e+02 -1.8721697414e+02 -3.0472553453e+02 4.7398292611e+02 1.7300000000e+02 0.0000e+00 -1.0000e+00
       21  1    1    2  504  503 -4.3383350378e+01 +5.5026917430e+01 -2.2929769295e+02 2.3976552864e+02 0.0000000000e+00 0.0000e+00 -1.0000e+00
       21  1    1    2  505  502 +4.9708453255e+01 +3.7089903903e+01 +2.0455351410e+03 2.0464751658e+03 0.0000000000e+00 0.0000e+00 -1.0000e+00
<mgrwt>
<rscale>  4 0.31996734E+03</rscale>
<asrwt>0</asrwt>
<pdfrwt beam="1">  1       21 0.33085566E+00 0.31996734E+03</pdfrwt>
<pdfrwt beam="2">  1       21 0.36452016E+00 0.31996734E+03</pdfrwt>
<totfact> 0.24488405E-01</totfact>
</mgrwt>
</event>
<event>
 6      1 +2.5196620e+02 2.51753600e+02 7.54677100e-03 1.06301000e-01
       21 -1    0    0  505  502 +0.0000000000e+00 +0.0000000000e+00 +1.0207520103e+03 1.0207520103e+03 0.0000000000e+00 0.0000e+00 -1.0000e+00
       21 -1    0    0  502  503 -0.0000000000e+00 -0.0000000000e+00 -6.5515489930e+02 6.5515489930e+02 0.0000000000e+00 0.0000e+00 -1.0000e+00
        6  1    1    2  501    0 +1.1398228143e+02 +1.4592845732e+02 +6.7938833484e+02 7.2511005003e+02 1.7300000000e+02 0.0000e+00 -1.0000e+00
       -6  1    1    2    0  504 +3.4379009597e+01 -2.2288747857e+02 -7.5476188412e+01 2.9408570081e+02 1.7300000000e+02 0.0000e+00 -1.0000e+00
       21  1    1    2  504  503 -5.2390416613e+01 +4.4163391663e+01 -4.3236236865e+02 4.3775835657e+02 0.0000000000e+00 0.0000e+00 -1.0000e+00
       21  1    1    2  505  501 -9.5970874417e+01 +3.2795629586e+01 +1.9404733320e+02 2.1895280217e+02 0.0000000000e+00 0.0000e+00 -1.0000e+00
<mgrwt>
<rscale>  4 0.25175363E+03</rscale>
<asrwt>0</asrwt>
<pdfrwt beam="1">  1       21 0.15703877E+00 0.25175363E+03</pdfrwt>
<pdfrwt beam="2">  1       21 0.10079306E+00 0.25175363E+03</pdfrwt>
<totfact> 0.19945494E+02</totfact>
</mgrwt>
</event>
<event>
 6      1 +2.5196620e+02 2.01898400e+02 7.54677100e-03 1.07655700e-01
       21 -1    0    0  501  502 +0.0000000000e+00 +0.0000000000e+00 +8.2271650477e+02 8.2271650477e+02 0.0000000000e+00 0.0000e+00 1.0000e+00
       21 -1    0    0  504  503 -0.0000000000e+00 -0.0000000000e+00 -3.0896592848e+02 3.0896592848e+02 0.0000000000e+00 0.0000e+00 -1.0000e+00
        6  1    1    2  501    0 -6.1034991804e+01 -1.5250369090e+02 -5.6746982425e+01 2.4521799684e+02 1.7300000000e+02 0.0000e+00 -1.0000e+00
       -6  1    1    2    0  505 -1.1236106336e+01 +9.8980058865e+01 +6.2338022970e+02 6.5456490352e+02 1.7300000000e+02 0.0000e+00 1.0000e+00
       21  1    1    2  504  502 +4.2578273657e+01 -4.0257511220e+01 -1.0524792195e+02 1.2046037386e+02 0.0000000000e+00 0.0000e+00 -1.0000e+00
       21  1    1    2  505  503 +2.9692824483e+01 +9.3781143254e+01 +5.2365250950e+01 1.1143915902e+02 0.0000000000e+00 0.0000e+00 1.0000e+00
<mgrwt>
<rscale>  4 0.20189836E+03</rscale>
<asrwt>0</asrwt>
<pdfrwt beam="1">  1       21 0.12657177E+00 0.20189836E+03</pdfrwt>
<pdfrwt beam="2">  1       21 0.47533220E-01 0.20189836E+03</pdfrwt>
<totfact> 0.19401199E+03</totfact>
</mgrwt>
</event>
<event>
 6      1 +2.5196620e+02 1.80671100e+02 7.54677100e-03 1.09079000e-01
       21 -1    0    0  503  502 +0.0000000000e+00 +0.0000000000e+00 +6.5563004654e+02 6.5563004654e+02 0.0000000000e+00 0.0000e+00 1.0000e+00
       21 -1    0    0  501  503 -0.0000000000e+00 -0.0000000000e+00 -3.1485742225e+02 3.1485742225e+02 0.0000000000e+00 0.0000e+00 1.0000e+00
        6  1    1    2  501    0 +6.1959998921e+01 -2.3783356768e+00 +7.2246749866e+01 1.9746718921e+02 1.7300000000e+02 0.0000e+00 1.0000e+00
       -6  1    1    2    0  504 -9.2957493464e+00 +4.4321747378e+01 -2.0395136290e+02 2.7124893857e+02 1.7300000000e+02 0.0000e+00 1.0000e+00
       21  1    1    2  504  505 -2.9276327898e+01 +3.2866327719e+00 +3.0804566296e+00 2.9620846430e+01 0.0000000000e+00 0.0000e+00 1.0000e+00
       21  1    1    2  505  502 -2.3387921677e+01 -4.5230044473e+01 +4.6939678070e+02 4.7215049458e+02 0.0000000000e+00 0.0000e+00 1.0000e+00
<mgrwt>
<rscale>  4 0.18067105E+03</rscale>
<asrwt>0</asrwt>
<pdfrwt beam="1">  1       21 0.10086616E+00 0.18067105E+03</pdfrwt>
<pdfrwt beam="2">  1       21 0.48439603E-01 0.18067105E+03</pdfrwt>
<totfact> 0.33076548E+03</totfact>
</mgrwt>
</event>
<event>
 6      1 +2.5196620e+02 2.02412800e+02 7.54677100e-03 1.06301000e-01
       21 -1    0    0  505  502 +0.0000000000e+00 +0.0000000000e+00 +8.0201446908e+02 8.0201446908e+02 0.0000000000e+00 0.0000e+00 -1.0000e+00
       21 -1    0    0  502  503 -0.0000000000e+00 -0.0000000000e+00 -2.4787533661e+02 2.4787533661e+02 0.0000000000e+00 0.0000e+00 -1.0000e+00
        6  1    1    2  501    0 -1.5532537739e+01 -1.1645877264e+02 +1.2435341496e+02 2.4330367294e+02 1.7300000000e+02 0.0000e+00 1.0000e+00
       -6  1    1    2    0  504 +8.4363708238e+01 +7.4780140722e+01 -3.1559448107e+01 2.0888825596e+02 1.7300000000e+02 0.0000e+00 -1.0000e+00
       21  1    1    2  504  503 -3.1796841477e+01 +1.0217694162e+01 -6.2893867403e+01 7.1211508612e+01 0.0000000000e+00 0.0000e+00 -1.0000e+00
       21  1    1    2  505  501 -3.7034329022e+01 +3.1460937754e+01 +5.2423903302e+02 5.2648636817e+02 0.0000000000e+00 0.0000e+00 -1.0000e+00
<mgrwt>
<rscale>  4 0.20241280E+03</rscale>
<asrwt>0</asrwt>
<pdfrwt beam="1">  1       21 0.12338684E+00 0.20241280E+03</pdfrwt>
<pdfrwt beam="2">  1       21 0.38134668E-01 0.20241280E+03</pdfrwt>
<totfact> 0.32403323E+03</totfact>
</mgrwt>
</event>
<event>
 6      1 +2.5196620e+02 1.78819900e+02 7.54677100e-03 1.11396600e-01
       21 -1    0    0  504  502 +0.0000000000e+00 +0.0000000000e+00 +1.9932769480e+02 1.9932769480e+02 0.0000000000e+00 0.0000e+00 -1.0000e+00
       21 -1    0    0  501  503 -0.0000000000e+00 -0.0000000000e+00 -1.5186664536e+03 1.5186664536e+03 0.0000000000e+00 0.0000e+00 1.0000e+00
        6  1    1    2  501    0 -2.3629915369e+00 -8.2876431836e+01 -1.0187199432e+03 1.0366259737e+03 1.7300000000e+02 0.0000e+00 1.0000e+00
       -6  1    1    2    0  502 +7.3655611869e+01 -9.9734502136e+01 -3.4325714108e+02 4.0388932269e+02 1.7300000000e+02 0.0000e+00 1.0000e+00
       21  1    1    2  504  505 -1.0531894650e+02 +1.1901646281e+02 +9.7863206018e+01 1.8663924026e+02 0.0000000000e+00 0.0000e+00 -1.0000e+00
       21  1    1    2  505  503 +3.4026326165e+01 +6.3594471160e+01 -5.5224880536e+01 9.0839611760e+01 0.0000000000e+00 0.0000e+00 1.0000e+00
<mgrwt>
<rscale>  4 0.17881990E+03</rscale>
<asrwt>0</asrwt>
<pdfrwt beam="1">  1       21 0.30665799E-01 0.17881990E+03</pdfrwt>
<pdfrwt beam="2">  1       21 0.23364099E+00 0.17881990E+03</pdfrwt>
<totfact> 0.86387955E+02</totfact>
</mgrwt>
</event>
<event>
 6      1 +2.5196620e+02 1.98595100e+02 7.54677100e-03 1.16128000e-01
       21 -1    0    0  501  502 +0.0000000000e+00 +0.0000000000e+00 +1.0405910454e+02 1.0405910454e+02 0.0000000000e+00 0.0000e+00 -1.0000e+00
       21 -1    0    0  505  503 -0.0000000000e+00 -0.0000000000e+00 -8.8686305980e+02 8.8686305980e+02 0.0000000000e+00 0.0000e+00 -1.0000e+00
        6  1    1    2  501    0 +1.2916909043e+02 -3.4095702580e+00 -2.1164990147e+02 3.0235899173e+02 1.7300000000e+02 0.0000e+00 -1.0000e+00
       -6  1    1    2    0  503 -6.2850718299e+01 +5.1281478528e+01 -1.2157235884e+02 2.2647039821e+02 1.7300000000e+02 0.0000e+00 -1.0000e+00
       21  1    1    2  504  502 -1.7061150273e+01 -1.4240697444e+01 -2.5447352091e+01 3.3785322861e+01 0.0000000000e+00 0.0000e+00 1.0000e+00
       21  1    1    2  505  504 -4.9257221858e+01 -3.3631210826e+01 -4.2413434286e+02 4.2830745153e+02 0.0000000000e+00 0.0000e+00 -1.0000e+00
<mgrwt>
<rscale>  4 0.19859506E+03</rscale>
<asrwt>0</asrwt>
<pdfrwt beam="1">  1       21 0.16009093E-01 0.19859506E+03</pdfrwt>
<pdfrwt beam="2">  1       21 0.13644047E+00 0.19859506E+03</pdfrwt>
<totfact> 0.13262403E+04</totfact>
</mgrwt>
</event>
<event>
 6      1 +2.5196620e+02 2.01258500e+02 7.54677100e-03 1.16321900e-01
       21 -1    0    0  504  502 +0.0000000000e+00 +0.0000000000e+00 +5.1884253676e+02 5.1884253676e+02 0.0000000000e+00 0.0000e+00 1.0000e+00
       21 -1    0    0  505  503 -0.0000000000e+00 -0.0000000000e+00 -1.7392560991e+02 1.7392560991e+02 0.0000000000e+00 0.0000e+00 1.0000e+00
        6  1    1    2  501    0 -7.1141443362e+01 +6.6249543646e+00 +1.6451382655e+02 2.4919629634e+02 1.7300000000e+02 0.0000e+00 1.0000e+00
       -6  1    1    2    0  502 +1.3200089590e+02 -3.3639702527e+01 +2.2983809693e+02 3.1829297338e+02 1.7300000000e+02 0.0000e+00 1.0000e+00
       21  1    1    2  504  503 -6.2128924344e+01 +5.4772770804e+01 -2.0840825002e+01 8.5407257587e+01 0.0000000000e+00 0.0000e+00 -1.0000e+00
       21  1    1    2  505  501 +1.2694718074e+00 -2.7758022641e+01 -2.8594171631e+01 3.9871619366e+01 0.0000000000e+00 0.0000e+00 1.0000e+00
<mgrwt>
<rscale>  4 0.20125855E+03</rscale>
<asrwt>0</asrwt>
<pdfrwt beam="1">  1       21 0.79821928E-01 0.20125855E+03</pdfrwt>
<pdfrwt beam="2">  1       21 0.26757786E-01 0.20125855E+03</pdfrwt>
<totfact> 0.18283546E+04</totfact>
</mgrwt>
</event>
<event>
 6      1 +2.5196620e+02 1.95426200e+02 7.54677100e-03 9.49153200e-02
       21 -1    0    0  505  502 +0.0000000000e+00 +0.0000000000e+00 +1.2800172009e+03 1.2800172009e+03 0.0000000000e+00 0.0000e+00 1.0000e+00
       21 -1    0    0  504  503 -0.0000000000e+00 -0.0000000000e+00 -1.7216559837e+02 1.7216559837e+02 0.0000000000e+00 0.0000e+00 1.0000e+00
        6  1    1    2  501    0 -4.7133369614e+01 -9.0392593321e+01 +9.5940609207e+02 9.8019458526e+02 1.7300000000e+02 0.0000e+00 1.0000e+00
       -6  1    1    2    0  502 +5.5120441965e+01 +4.2508516227e+01 -3.5718722280e+01 1.8986854451e+02 1.7300000000e+02 0.0000e+00 1.0000e+00
       21  1    1    2  504  501 +9.6399046095e+00 +2.3702285365e+01 -4.4593446226e+01 5.1413048331e+01 0.0000000000e+00 0.0000e+00 -1.0000e+00
       21  1    1    2  505  503 -1.7626976960e+01 +2.4181791729e+01 +2.2875767894e+02 2.3070662114e+02 0.0000000000e+00 0.0000e+00 1.0000e+00
<mgrwt>
<rscale>  4 0.19542623E+03</rscale>
<asrwt>0</asrwt>
<pdfrwt beam="1">  1       21 0.19692572E+00 0.19542623E+03</pdfrwt>
<pdfrwt beam="2">  1       21 0.26487016E-01 0.19542623E+03</pdfrwt>
<totfact> 0.19002771E+03</totfact>
</mgrwt>
</event>
<event>
 6      1 +2.5196620e+02 2.36173700e+02 7.54677100e-03 1.16128000e-01
       21 -1    0    0  501  502 +0.0000000000e+00 +0.0000000000e+00 +3.7318795034e+02 3.7318795034e+02 0.0000000000e+00 0.0000e+00 1.0000e+00
       21 -1    0    0  502  503 -0.0000000000e+00 -0.0000000000e+00 -1.8153713845e+03 1.8153713845e+03 0.0000000000e+00 0.0000e+00 1.0000e+00
        6  1    1    2  501    0 -1.4948119300e+02 -3.5791971638e+01 +1.2890615956e+02 2.6489901900e+02 1.7300000000e+02 0.0000e+00 1.0000e+00
       -6  1    1    2    0  504 +1.6771375459e+02 +2.6640361496e+01 +8.9812260768e+01 2.5852051084e+02 1.7300000000e+02 0.0000e+00 1.0000e+00
       21  1    1    2  504  505 +2.8782361771e+01 +2.3951775419e+00 -1.1716028328e+02 1.2066769743e+02 0.0000000000e+00 0.0000e+00 1.0000e+00
       21  1    1    2  505  503 -4.7014923362e+01 +6.7564326006e+00 -1.5437415712e+03 1.5444721076e+03 0.0000000000e+00 0.0000e+00 1.0000e+00
<mgrwt>
<rscale>  4 0.23617368E+03</rscale>
<asrwt>0</asrwt>
<pdfrwt beam="1">  1       21 0.57413530E-01 0.23617368E+03</pdfrwt>
<pdfrwt beam="2">  1       21 0.27928791E+00 0.23617368E+03</pdfrwt>
<totfact> 0.12019227E+02</totfact>
</mgrwt>
</event>
<event>
 6      1 +2.5196620e+02 1.74750900e+02 7.54677100e-03 1.02776600e-01
       21 -1    0    0  505  502 +0.0000000000e+00 +0.0000000000e+00 +1.2256956617e+02 1.2256956617e+02 0.0000000000e+00 0.0000e+00 -1.0000e+00
       21 -1    0    0  501  503 -0.0000000000e+00 -0.0000000000e+00 -2.5070332648e+03 2.5070332648e+03 0.0000000000e+00 0.0000e+00 -1.0000e+00
        6  1    1    2  501    0 +1.7260334484e+01 -2.9753717391e+01 -1.0006592226e+02 2.0279396353e+02 1.7300000000e+02 0.0000e+00 1.0000e+00
       -6  1    1    2    0  502 -2.8829745378e+01 -3.8071818456e+01 -6.1962283698e+01 1.8986558977e+02 1.7300000000e+02 0.0000e+00 -1.0000e+00
       21  1    1    2  504  503 +4.6262113209e+01 -4.6910773298e+00 -1.9980757290e+03 1.9986167236e+03 0.0000000000e+00 0.0000e+00 -1.0000e+00
       21  1    1    2  505  504 -3.4692702315e+01 +7.2516613177e+01 -2.2435976369e+02 2.3832655400e+02 0.0000000000e+00 0.0000e+00 -1.0000e+00
<mgrwt>
<rscale>  4 0.17475088E+03</rscale>
<asrwt>0</asrwt>
<pdfrwt beam="1">  1       21 0.18856857E-01 0.17475088E+03</pdfrwt>
<pdfrwt beam="2">  1       21 0.38569742E+00 0.17475088E+03</pdfrwt>
<totfact> 0.28386940E+02</totfact>
</mgrwt>
</event>
<event>
 6      1 +2.5196620e+02 2.02529300e+02 7.54677100e-03 1.02776600e-01
       21 -1    0    0  505  502 +0.0000000000e+00 +0.0000000000e+00 +5.0209622340e+02 5.0209622340e+02 0.0000000000e+00 0.0000e+00 1.0000e+00
       21 -1    0    0  501  503 -0.0000000000e+00 -0.0000000000e+00 -2.4429098169e+02 2.4429098169e+02 0.0000000000e+00 0.0000e+00 1.0000e+00
        6  1    1    2  501    0 +9.1525436267e+01 +8.1641820981e+01 +9.5114109227e+01 2.3241769767e+02 1.7300000000e+02 0.0000e+00 -1.0000e+00
       -6  1    1    2    0  502 -1.1282242858e+02 +4.3910604099e+01 +2.6009909736e+02 3.3501877857e+02 1.7300000000e+02 0.0000e+00 1.0000e+00
       21  1    1    2  504  503 +4.5434834483e+01 -7.5498695146e+01 -8.4103423588e+01 1.2181035675e+02 0.0000000000e+00 0.0000e+00 1.0000e+00
       21  1    1    2  505  504 -2.4137842170e+01 -5.0053729934e+01 -1.3304541294e+01 5.7140372102e+01 0.0000000000e+00 0.0000e+00 -1.0000e+00
<mgrwt>
<rscale>  4 0.20252932E+03</rscale>
<asrwt>0</asrwt>
<pdfrwt beam="1">  1       21 0.77245573E-01 0.20252932E+03</pdfrwt>
<pdfrwt beam="2">  1       21 0.37583228E-01 0.20252932E+03</pdfrwt>
<totfact> 0.10092678E+04</totfact>
</mgrwt>
</event>
<event>
 6      1 +2.5196620e+02 4.30069400e+02 7.54677100e-03 1.14954000e-01
       21 -1    0    0  501  502 +0.0000000000e+00 +0.0000000000e+00 +5.5527581842e+02 5.5527581842e+02 0.0000000000e+00 0.0000e+00 -1.0000e+00
       21 -1    0    0  505  503 -0.0000000000e+00 -0.0000000000e+00 -6.6699464840e+02 6.6699464840e+02 0.0000000000e+00 0.0000e+00 -1.0000e+00
        6  1    1    2  501    0 +8.5935077709e+01 -3.9001009839e+02 -4.0033532823e+02 5.9134599809e+02 1.7300000000e+02 0.0000e+00 -1.0000e+00
       -6  1    1    2    0  503 -1.3701107594e+02 +3.5544318386e+02 +1.1206384326e+02 4.3312722940e+02 1.7300000000e+02 0.0000e+00 -1.0000e+00
       21  1    1    2  504  502 +1.6158333900e+01 +4.8422153114e+01 +1.1253289559e+02 1.2356961300e+02 0.0000000000e+00 0.0000e+00 -1.0000e+00
       21  1    1    2  505  504 +3.4917664327e+01 -1.3855238582e+01 +6.4019759393e+01 7.4227626333e+01 0.0000000000e+00 0.0000e+00 1.0000e+00
<mgrwt>
<rscale>  4 0.43006945E+03</rscale>
<asrwt>0</asrwt>
<pdfrwt beam="1">  1       21 0.85427049E-01 0.43006945E+03</pdfrwt>
<pdfrwt beam="2">  1       21 0.10261456E+00 0.43006945E+03</pdfrwt>
<totfact> 0.77970836E+02</totfact>
</mgrwt>
</event>
<event>
 6      1 +2.5196620e+02 2.76707600e+02 7.54677100e-03 9.49153200e-02
       21 -1    0    0  505  502 +0.0000000000e+00 +0.0000000000e+00 +8.2927346770e+01 8.2927346770e+01 0.0000000000e+00 0.0000e+00 1.0000e+00
       21 -1    0    0  501  503 -0.0000000000e+00 -0.0000000000e+00 -2.4337629739e+03 2.4337629739e+03 0.0000000000e+00 0.0000e+00 1.0000e+00
        6  1    1    2  501    0 -1.0048119562e+02 -1.7520211677e+02 -9.8008384382e+02 1.0155223254e+03 1.7300000000e+02 0.0000e+00 1.0000e+00
       -6  1    1    2    0  502 +1.6451992767e+02 +1.3090924306e+02 -3.4030249499e+02 4.3581971573e+02 1.7300000000e+02 0.0000e+00 1.0000e+00
       21  1    1    2  504  503 -5.8624412059e+01 +1.2565036674e-02 -1.0170937290e+03 1.0187818586e+03 0.0000000000e+00 0.0000e+00 1.0000e+00
       21  1    1    2  505  504 -5.4143199959e+00 +4.4280308673e+01 -1.3355559306e+01 4.6566420966e+01 0.0000000000e+00 0.0000e+00 -1.0000e+00
<mgrwt>
<rscale>  4 0.27670764E+03</rscale>
<asrwt>0</asrwt>
<pdfrwt beam="1">  1       21 0.12758053E-01 0.27670764E+03</pdfrwt>
<pdfrwt beam="2">  1       21 0.37442510E+00 0.27670764E+03</pdfrwt>
<totfact> 0.58940301E+02</totfact>
</mgrwt>
</event>
<event>
 6      1 +2.5196620e+02 1.95107900e+02 7.54677100e-03 1.16128000e-01
       21 -1    0    0  501  502 +0.0000000000e+00 +0.0000000000e+00 +2.7160406868e+02 2.7160406868e+02 0.0000000000e+00 0.0000e+00 -1.0000e+00
       21 -1    0    0  502  503 -0.0000000000e+00 -0.0000000000e+00 -3.4132876985e+02 3.4132876985e+02 0.0000000000e+00 0.0000e+00 -1.0000e+00
        6  1    1    2  501    0 -5.5043696836e+01 +5.2368404897e+01 +4.7127457926e+01 1.9473637483e+02 1.7300000000e+02 0.0000e+00 -1.0000e+00
       -6  1    1    2    0  505 +5.5143674673e+00 -1.1902172485e+02 +6.2650924746e+01 2.1920473902e+02 1.7300000000e+02 0.0000e+00 -1.0000e+00
       21  1    1    2  504  503 +2.2374076838e+01 +1.9334593083e+01 -8.3336325027e+01 8.8427195325e+01 0.0000000000e+00 0.0000e+00 1.0000e+00
       21  1    1    2  505  504 +2.7155252531e+01 +4.7318726872e+01 -9.6166758808e+01 1.1056452936e+02 0.0000000000e+00 0.0000e+00 -1.0000e+00
<mgrwt>
<rscale>  4 0.19510787E+03</rscale>
<asrwt>0</asrwt>
<pdfrwt beam="1">  1       21 0.41785241E-01 0.19510787E+03</pdfrwt>
<pdfrwt beam="2">  1       21 0.52512119E-01 0.19510787E+03</pdfrwt>
<totfact> 0.18932418E+04</totfact>
</mgrwt>
</event>
<event>
 6      1 +2.5196620e+02 2.51483600e+02 7.54677100e-03 1.15334700e-01
       21 -1    0    0  501  502 +0.0000000000e+00 +0.0000000000e+00 +6.0637818964e+02 6.0637818964e+02 0.0000000000e+00 0.0000e+00 -1.0000e+00
       21 -1    0    0  502  503 -0.0000000000e+00 -0.0000000000e+00 -3.7946859888e+02 3.7946859888e+02 0.0000000000e+00 0.0000e+00 1.0000e+00
        6  1    1    2  501    0 +1.2869700366e+02 +1.3627259912e+02 +5.1372940423e+02 5.7356781708e+02 1.7300000000e+02 0.0000e+00 -1.0000e+00
       -6  1    1    2    0  504 -9.5548045371e+01 -1.0822962100e+02 -1.7818854224e+02 2.8726857890e+02 1.7300000000e+02 0.0000e+00 1.0000e+00
       21  1    1    2  504  505 -2.2943299927e+01 -7.6522687231e+00 -1.4593337640e+01 2.8247437612e+01 0.0000000000e+00 0.0000e+00 -1.0000e+00
       21  1    1    2  505  503 -1.0205658362e+01 -2.0390709395e+01 -9.4037933591e+01 9.6762954928e+01 0.0000000000e+00 0.0000e+00 1.0000e+00
<mgrwt>
<rscale>  4 0.25148362E+03</rscale>
<asrwt>0</asrwt>
<pdfrwt beam="1">  1       21 0.93288952E-01 0.25148362E+03</pdfrwt>
<pdfrwt beam="2">  1       21 0.58379785E-01 0.25148362E+03</pdfrwt>
<totfact> 0.25361604E+03</totfact>
</mgrwt>
</event>
<event>
 6      1 +2.5196620e+02 2.88959900e+02 7.54677100e-03 9.49153200e-02
       21 -1    0    0  505  502 +0.0000000000e+00 +0.0000000000e+00 +1.3113313273e+03 1.3113313273e+03 0.0000000000e+00 0.0000e+00 -1.0000e+00
       21 -1    0    0  501  503 -0.0000000000e+00 -0.0000000000e+00 -2.7070799001e+03 2.7070799001e+03 0.0000000000e+00 0.0000e+00 -1.0000e+00
        6  1    1    2  501    0 +2.4953682947e+01 -2.8172854469e+01 -2.3991736936e+03 2.4056973642e+03 1.7300000000e+02 0.0000e+00 -1.0000e+00
       -6  1    1    2    0  502 +2.1303311367e+02 -4.6849143569e+00 +1.2054471141e+02 2.9977505465e+02 1.7300000000e+02 0.0000e+00 -1.0000e+00
       21  1    1    2  504  503 -3.3849568905e+01 -8.8909698370e+01 -1.9083175223e+02 2.1323106115e+02 0.0000000000e+00 0.0000e+00 -1.0000e+00
       21  1    1    2  505  504 -2.0413722771e+02 +1.2176746720e+02 +1.0737121616e+03 1.0997077474e+03 0.0000000000e+00 0.0000e+00 -1.0000e+00
<mgrwt>
<rscale>  4 0.26584426E+03</rscale>
<asrwt>0</asrwt>
<pdfrwt beam="1">  1       21 0.20174328E+00 0.28895989E+03</pdfrwt>
<pdfrwt beam="2">  1       21 0.41647383E+00 0.28895989E+03</pdfrwt>
<totfact> 0.73471899E-01</totfact>
</mgrwt>
</event>
<event>
 6      1 +2.5196620e+02 2.62045600e+02 7.54677100e-03 9.49153200e-02
       21 -1    0    0  504  502 +0.0000000000e+00 +0.0000000000e+00 +3.2427247891e+03 3.2427247891e+03 0.0000000000e+00 0.0000e+00 1.0000e+00
       21 -1    0    0  501  503 -0.0000000000e+00 -0.0000000000e+00 -9.1713862063e+01 9.1713862063e+01 0.0000000000e+00 0.0000e+00 -1.0000e+00
        6  1    1    2  501    0 +2.4666135621e+02 +2.2802819002e+01 +4.0985033316e+02 5.0918374757e+02 1.7300000000e+02 0.0000e+00 -1.0000e+00
       -6  1    1    2    0  505 -1.3061697895e+02 -1.0526973116e+01 +1.3987778611e+03 1.4155140822e+03 1.7300000000e+02 0.0000e+00 1.0000e+00
       21  1    1    2  504  503 -4.2304878183e+01 +8.0528171627e+00 -1.8385153029e+01 4.6824827114e+01 0.0000000000e+00 0.0000e+00 -1.0000e+00
       21  1    1    2  505  502 -7.3739499075e+01 -2.0328663049e+01 +1.3607678859e+03 1.3629159943e+03 0.0000000000e+00 0.0000e+00 1.0000e+00
<mgrwt>
<rscale>  4 0.26204558E+03</rscale>
<asrwt>0</asrwt>
<pdfrwt beam="1">  1       21 0.49888065E+00 0.26204558E+03</pdfrwt>
<pdfrwt beam="2">  1       21 0.14109827E-01 0.26204558E+03</pdfrwt>
<totfact> 0.75617125E+01</totfact>
</mgrwt>
</event>
<event>
 6      1 +2.5196620e+02 2.83695200e+02 7.54677100e-03 1.06301000e-01
       21 -1    0    0  505  502 +0.0000000000e+00 +0.0000000000e+00 +1.5583884708e+02 1.5583884708e+02 0.0000000000e+00 0.0000e+00 -1.0000e+00
       21 -1    0    0  504  503 -0.0000000000e+00 -0.0000000000e+00 -9.4714368863e+02 9.4714368863e+02 0.0000000000e+00 0.0000e+00 1.0000e+00
        6  1    1    2  501    0 +2.2241718984e+02 -3.7432292649e+01 -2.8224773445e+02 4.0057878934e+02 1.7300000000e+02 0.0000e+00 1.0000e+00
       -6  1    1    2    0  502 -2.1044545037e+02 +4.4138774043e+01 -1.3417131795e+02 3.0686554306e+02 1.7300000000e+02 0.0000e+00 -1.0000e+00
       21  1    1    2  504  501 +2.3165321467e+01 -1.1399087118e+01 -3.5286091899e+02 3.5380418236e+02 0.0000000000e+00 0.0000e+00 1.0000e+00
       21  1    1    2  505  503 -3.5137060934e+01 +4.6926057241e+00 -2.2024870168e+01 4.1734020960e+01 0.0000000000e+00 0.0000e+00 -1.0000e+00
<mgrwt>
<rscale>  4 0.28369518E+03</rscale>
<asrwt>0</asrwt>
<pdfrwt beam="1">  1       21 0.23975208E-01 0.28369518E+03</pdfrwt>
<pdfrwt beam="2">  1       21 0.14571441E+00 0.28369518E+03</pdfrwt>
<totfact> 0.49627517E+03</totfact>
</mgrwt>
</event>
<event>
 6      1 +2.5196620e+02 2.24400700e+02 7.54677100e-03 1.06301000e-01
       21 -1    0    0  505  502 +0.0000000000e+00 +0.0000000000e+00 +1.1592354342e+03 1.1592354342e+03 0.0000000000e+00 0.0000e+00 1.0000e+00
       21 -1    0    0  501  503 -0.0000000000e+00 -0.0000000000e+00 -3.5373578364e+02 3.5373578364e+02 0.0000000000e+00 0.0000e+00 1.0000e+00
        6  1    1    2  501    0 +9.0552499395e+00 +1.2815367808e+02 -8.5777676833e+01 2.3193139632e+02 1.7300000000e+02 0.0000e+00 1.0000e+00
       -6  1    1    2    0  502 -2.6059525549e+01 -8.9606713626e+01 +5.9583715323e+02 6.2742280415e+02 1.7300000000e+02 0.0000e+00 1.0000e+00
       21  1    1    2  504  503 +7.3495423187e+00 +2.3743886655e+01 -1.7611861836e+02 1.7786386833e+02 0.0000000000e+00 0.0000e+00 1.0000e+00
       21  1    1    2  505  504 +9.6547332913e+00 -6.2290851111e+01 +4.7155879251e+02 4.7575314901e+02 0.0000000000e+00 0.0000e+00 -1.0000e+00
<mgrwt>
<rscale>  4 0.22440072E+03</rscale>
<asrwt>0</asrwt>
<pdfrwt beam="1">  1       21 0.17834391E+00 0.22440072E+03</pdfrwt>
<pdfrwt beam="2">  1       21 0.54420890E-01 0.22440072E+03</pdfrwt>
<totfact> 0.57535568E+02</totfact>
</mgrwt>
</event>
<event>
 6      1 +2.5196620e+02 3.78315100e+02 7.54677100e-03 1.09079000e-01
       21 -1    0    0  503  502 +0.0000000000e+00 +0.0000000000e+00 +1.6413736391e+03 1.6413736391e+03 0.0000000000e+00 0.0000e+00 1.0000e+00
       21 -1    0    0  501  503 -0.0000000000e+00 -0.0000000000e+00 -5.6439252195e+02 5.6439252195e+02 0.0000000000e+00 0.0000e+00 1.0000e+00
        6  1    1    2  501    0 -6.1133905178e+01 +3.3187240427e+02 -2.0856494660e+02 4.3278745826e+02 1.7300000000e+02 0.0000e+00 1.0000e+00
       -6  1    1    2    0  504 +1.4120020020e+02 -3.1032828766e+02 -7.9030630294e+01 3.9040489646e+02 1.7300000000e+02 0.0000e+00 1.0000e+00
       21  1    1    2  504  505 -2.6210398923e+01 -1.6995871255e+01 +2.0396949340e+01 3.7307910606e+01 0.0000000000e+00 0.0000e+00 1.0000e+00
       21  1    1    2  505  502 -5.3855896101e+01 -4.5482453615e+00 +1.3441797447e+03 1.3452658957e+03 0.0000000000e+00 0.0000e+00 1.0000e+00
<mgrwt>
<rscale>  4 0.37831513E+03</rscale>
<asrwt>0</asrwt>
<pdfrwt beam="1">  1       21 0.25251902E+00 0.37831513E+03</pdfrwt>
<pdfrwt beam="2">  1       21 0.86829619E-01 0.37831513E+03</pdfrwt>
<totfact> 0.59788101E+01</totfact>
</mgrwt>
</event>
<event>
 6      1 +2.5196620e+02 1.79847900e+02 7.54677100e-03 1.16558800e-01
       21 -1    0    0  505  502 +0.0000000000e+00 +0.0000000000e+00 +6.6521094905e+02 6.6521094905e+02 0.0000000000e+00 0.0000e+00 1.0000e+00
       21 -1    0    0  504  503 -0.0000000000e+00 -0.0000000000e+00 -3.5362069120e+02 3.5362069120e+02 0.0000000000e+00 0.0000e+00 1.0000e+00
        6  1    1    2  501    0 -2.0331375360e+01 +4.7412433949e+01 -1.9872034418e+02 2.6847733407e+02 1.7300000000e+02 0.0000e+00 1.0000e+00
       -6  1    1    2    0  502 +1.1499103922e+02 +4.6380525304e+01 +2.9687897697e+01 2.1490570839e+02 1.7300000000e+02 0.0000e+00 1.0000e+00
       21  1    1    2  504  501 -5.0329513201e+01 -5.0951929862e+01 +2.5275923624e+01 7.5947556713e+01 0.0000000000e+00 0.0000e+00 1.0000e+00
       21  1    1    2  505  503 -4.4330150661e+01 -4.2841029391e+01 +4.5534678070e+02 4.5950104108e+02 0.0000000000e+00 0.0000e+00 1.0000e+00
<mgrwt>
<rscale>  4 0.17984790E+03</rscale>
<asrwt>0</asrwt>
<pdfrwt beam="1">  1       21 0.10234015E+00 0.17984790E+03</pdfrwt>
<pdfrwt beam="2">  1       21 0.54403183E-01 0.17984790E+03</pdfrwt>
<totfact> 0.25087907E+03</totfact>
</mgrwt>
</event>
<event>
 6      1 +2.5196620e+02 2.09997400e+02 7.54677100e-03 1.07655700e-01
       21 -1    0    0  501  502 +0.0000000000e+00 +0.0000000000e+00 +1.3599151899e+02 1.3599151899e+02 0.0000000000e+00 0.0000e+00 -1.0000e+00
       21 -1    0    0  504  503 -0.0000000000e+00 -0.0000000000e+00 -2.8431969603e+03 2.8431969603e+03 0.0000000000e+00 0.0000e+00 1.0000e+00
        6  1    1    2  501    0 -1.9721662494e+02 -1.0156469437e+02 -8.4922626640e+02 8.9460831420e+02 1.7300000000e+02 0.0000e+00 -1.0000e+00
       -6  1    1    2    0  505 +5.2054792660e+01 +5.5300809563e+01 -1.5429689748e+01 1.8956517693e+02 1.7300000000e+02 0.0000e+00 -1.0000e+00
       21  1    1    2  504  502 +1.2234311486e+02 +1.5250949934e+01 -1.8514058114e+03 1.8555063751e+03 0.0000000000e+00 0.0000e+00 1.0000e+00
       21  1    1    2  505  503 +2.2818717420e+01 +3.1012934872e+01 +8.8563262882e+00 3.9508613104e+01 0.0000000000e+00 0.0000e+00 -1.0000e+00
<mgrwt>
<rscale>  4 0.20999738E+03</rscale>
<asrwt>0</asrwt>
<pdfrwt beam="1">  1       21 0.20921774E-01 0.20999738E+03</pdfrwt>
<pdfrwt beam="2">  1       21 0.43741489E+00 0.20999738E+03</pdfrwt>
<totfact> 0.10356352E+02</totfact>
</mgrwt>
</event>
<event>
 6      1 +2.5196620e+02 2.04073400e+02 7.54677100e-03 9.49153200e-02
       21 -1    0    0  505  502 +0.0000000000e+00 +0.0000000000e+00 +1.4477266348e+03 1.4477266348e+03 0.0000000000e+00 0.0000e+00 -1.0000e+00
       21 -1    0    0  501  503 -0.0000000000e+00 -0.0000000000e+00 -2.0893752358e+02 2.0893752358e+02 0.0000000000e+00 0.0000e+00 -1.0000e+00
        6  1    1    2  501    0 -1.2167949708e+02 +3.8574559620e+01 +3.9627456229e+01 2.1861663236e+02 1.7300000000e+02 0.0000e+00 -1.0000e+00
       -6  1    1    2    0  502 +7.9176676813e+01 -5.5310730345e+01 -1.4981056720e+01 1.9869991219e+02 1.7300000000e+02 0.0000e+00 -1.0000e+00
       21  1    1    2  504  503 +1.3868454013e+01 +3.3301582744e+01 +1.3915889567e+01 3.8664989492e+01 0.0000000000e+00 0.0000e+00 1.0000e+00
       21  1    1    2  505  504 +2.8634366249e+01 -1.6565412018e+01 +1.2002268221e+03 1.2006826243e+03 0.0000000000e+00 0.0000e+00 -1.0000e+00
<mgrwt>
<rscale>  4 0.20407341E+03</rscale>
<asrwt>0</asrwt>
<pdfrwt beam="1">  1       21 0.22272717E+00 0.20407341E+03</pdfrwt>
<pdfrwt beam="2">  1       21 0.32144235E-01 0.20407341E+03</pdfrwt>
<totfact> 0.88929497E+02</totfact>
</mgrwt>
</event>
<event>
 6      1 +2.5196620e+02 2.76613200e+02 7.54677100e-03 1.06301000e-01
       21 -1    0    0  504  502 +0.0000000000e+00 +0.0000000000e+00 +7.0877541913e+02 7.0877541913e+02 0.0000000000e+00 0.0000e+00 -1.0000e+00
       21 -1    0    0  501  503 -0.0000000000e+00 -0.0000000000e+00 -5.5148894670e+02 5.5148894670e+02 0.0000000000e+00 0.0000e+00 -1.0000e+00
        6  1    1    2  501    0 -1.4679494124e+02 -3.7063359085e+01 +7.3867992028e+01 2.4147034519e+02 1.7300000000e+02 0.0000e+00 -1.0000e+00
       -6  1    1    2    0  505 +2.4291583577e+02 +1.2270785790e+02 -1.2901121696e+02 3.4733012504e+02 1.7300000000e+02 0.0000e+00 -1.0000e+00
       21  1    1    2  504  503 -7.1700098738e+00 -5.3711868985e+01 -2.2115583625e+02 2.2769777737e+02 0.0000000000e+00 0.0000e+00 1.0000e+00
       21  1    1    2  505  502 -8.8950884663e+01 -3.1932629832e+01 +4.3358553362e+02 4.4376611823e+02 0.0000000000e+00 0.0000e+00 -1.0000e+00
<mgrwt>
<rscale>  4 0.27661323E+03</rscale>
<asrwt>0</asrwt>
<pdfrwt beam="1">  1       21 0.10904237E+00 0.27661323E+03</pdfrwt>
<pdfrwt beam="2">  1       21 0.84844453E-01 0.27661323E+03</pdfrwt>
<totfact> 0.74514596E+02</totfact>
</mgrwt>
</event>
<event>
 6      1 +2.5196620e+02 2.20436900e+02 7.54677100e-03 9.49153200e-02
       21 -1    0    0  503  502 +0.0000000000e+00 +0.0000000000e+00 +1.2321862530e+03 1.2321862530e+03 0.0000000000e+00 0.0000e+00 -1.0000e+00
       21 -1    0    0  504  503 -0.0000000000e+00 -0.0000000000e+00 -8.5694635435e+02 8.5694635435e+02 0.0000000000e+00 0.0000e+00 -1.0000e+00
        6  1    1    2  501    0 +7.6805425515e+00 +1.0165795212e+02 -2.8226993682e+02 3.4640820890e+02 1.7300000000e+02 0.0000e+00 -1.0000e+00
       -6  1    1    2    0  505 -9.0797119876e+01 -1.7329255538e+02 +3.5629445898e+02 4.4175691079e+02 1.7300000000e+02 0.0000e+00 -1.0000e+00
       21  1    1    2  504  501 +1.8224898024e+01 +3.2069494527e+01 -4.9738894113e+02 4.9875480764e+02 0.0000000000e+00 0.0000e+00 -1.0000e+00
       21  1    1    2  505  502 +6.4891679300e+01 +3.9565108742e+01 +7.9860431763e+02 8.0221268003e+02 0.0000000000e+00 0.0000e+00 -1.0000e+00
<mgrwt>
<rscale>  4 0.22043690E+03</rscale>
<asrwt>0</asrwt>
<pdfrwt beam="1">  1       21 0.18956712E+00 0.22043690E+03</pdfrwt>
<pdfrwt beam="2">  1       21 0.13183790E+00 0.22043690E+03</pdfrwt>
<totfact> 0.62954013E+01</totfact>
</mgrwt>
</event>
<event>
 6      1 +2.5196620e+02 2.13110100e+02 7.54677100e-03 9.49153200e-02
       21 -1    0    0  504  502 +0.0000000000e+00 +0.0000000000e+00 +1.8163785677e+02 1.8163785677e+02 0.0000000000e+00 0.0000e+00 -1.0000e+00
       21 -1    0    0  501  503 -0.0000000000e+00 -0.0000000000e+00 -5.1195625802e+02 5.1195625802e+02 0.0000000000e+00 0.0000e+00 -1.0000e+00
        6  1    1    2  501    0 -1.3055858980e+02 +4.4670671595e+01 -2.5968953135e+02 3.4118714361e+02 1.7300000000e+02 0.0000e+00 -1.0000e+00
       -6  1    1    2    0  505 +7.5859355370e+01 -6.8550271287e+01 -6.8845916915e+01 2.1242067170e+02 1.7300000000e+02 0.0000e+00 -1.0000e+00
       21  1    1    2  504  503 +1.3150732408e+01 +4.3101265898e+01 -5.4138441204e+01 7.0438850792e+01 0.0000000000e+00 0.0000e+00 -1.0000e+00
       21  1    1    2  505  502 +4.1548502024e+01 -1.9221666206e+01 +5.2355488222e+01 6.9547448689e+01 0.0000000000e+00 0.0000e+00 -1.0000e+00
<mgrwt>
<rscale>  4 0.21311007E+03</rscale>
<asrwt>0</asrwt>
<pdfrwt beam="1">  1       21 0.27944286E-01 0.21311007E+03</pdfrwt>
<pdfrwt beam="2">  1       21 0.78762501E-01 0.21311007E+03</pdfrwt>
<totfact> 0.17205464E+04</totfact>
</mgrwt>
</event>
<event>
 6      1 +2.5196620e+02 2.22463000e+02 7.54677100e-03 9.49153200e-02
       21 -1    0    0  503  502 +0.0000000000e+00 +0.0000000000e+00 +3.8034960850e+02 3.8034960850e+02 0.0000000000e+00 0.0000e+00 -1.0000e+00
       21 -1    0    0  504  503 -0.0000000000e+00 -0.0000000000e+00 -4.8576224119e+02 4.8576224119e+02 0.0000000000e+00 0.0000e+00 -1.0000e+00
        6  1    1    2  501    0 -1.7910955669e+02 -3.7292612450e+01 -1.8100478176e+02 3.1010111780e+02 1.7300000000e+02 0.0000e+00 -1.0000e+00
       -6  1    1    2    0  505 +1.0056805030e+02 -2.4603276850e+01 -8.2982167260e+01 2.1802360894e+02 1.7300000000e+02 0.0000e+00 1.0000e+00
       21  1    1    2  504  501 +2.1011909797e+01 -2.8061012797e+00 -8.0748573931e+01 8.3484769567e+01 0.0000000000e+00 0.0000e+00 -1.0000e+00
       21  1    1    2  505  502 +5.7529596589e+01 +6.4701990580e+01 +2.3932289027e+02 2.5450235338e+02 0.0000000000e+00 0.0000e+00 -1.0000e+00
<mgrwt>
<rscale>  4 0.22246301E+03</rscale>
<asrwt>0</asrwt>
<pdfrwt beam="1">  1       21 0.58515325E-01 0.22246301E+03</pdfrwt>
<pdfrwt beam="2">  1       21 0.74732652E-01 0.22246301E+03</pdfrwt>
<totfact> 0.42826563E+03</totfact>
</mgrwt>
</event>
<event>
 6      1 +2.5196620e+02 1.78846800e+02 7.54677100e-03 1.02776600e-01
       21 -1    0    0  505  502 +0.0000000000e+00 +0.0000000000e+00 +5.3465353552e+02 5.3465353552e+02 0.0000000000e+00 0.0000e+00 -1.0000e+00
       21 -1    0    0  501  503 -0.0000000000e+00 -0.0000000000e+00 -1.4412992768e+02 1.4412992768e+02 0.0000000000e+00 0.0000e+00 -1.0000e+00
        6  1    1    2  501    0 +3.7061662724e+01 +3.0267438507e-02 -1.2395299523e+01 1.7735898965e+02 1.7300000000e+02 0.0000e+00 -1.0000e+00
       -6  1    1    2    0  502 +4.3793542030e+01 +4.4745918370e+01 +3.3717002887e+02 3.8409985668e+02 1.7300000000e+02 0.0000e+00 -1.0000e+00
       21  1    1    2  504  503 -5.0853938560e+01 -1.8763880370e+01 +2.2721156473e+01 5.8774630795e+01 0.0000000000e+00 0.0000e+00 -1.0000e+00
       21  1    1    2  505  504 -3.0001266194e+01 -2.6012305439e+01 +4.3027722020e+01 5.8549986078e+01 0.0000000000e+00 0.0000e+00 -1.0000e+00
<mgrwt>
<rscale>  4 0.17884684E+03</rscale>
<asrwt>0</asrwt>
<pdfrwt beam="1">  1       21 0.82254389E-01 0.17884684E+03</pdfrwt>
<pdfrwt beam="2">  1       21 0.22173835E-01 0.17884684E+03</pdfrwt>
<totfact> 0.24758287E+04</totfact>
</mgrwt>
</event>
<event>
 6      1 +2.5196620e+02 2.46133800e+02 7.54677100e-03 1.13287100e-01
       21 -1    0    0  504  502 +0.0000000000e+00 +0.0000000000e+00 +8.1728782848e+02 8.1728782848e+02 0.0000000000e+00 0.0000e+00 -1.0000e+00
       21 -1    0    0  505  503 -0.0000000000e+00 -0.0000000000e+00 -5.0341669502e+02 5.0341669502e+02 0.0000000000e+00 0.0000e+00 1.0000e+00
        6  1    1    2  501    0 +8.5634088437e+01 +9.6601522389e+01 +3.2862871547e+02 3.9318047238e+02 1.7300000000e+02 0.0000e+00 -1.0000e+00
       -6  1    1    2    0  503 +7.6615780267e+01 -1.7174275014e+02 -3.7089353630e+02 4.5039600940e+02 1.7300000000e+02 0.0000e+00 1.0000e+00
       21  1    1    2  504  501 -1.5689224346e+02 +9.1029230324e+00 +5.1513260256e+01 1.6538335844e+02 0.0000000000e+00 0.0000e+00 -1.0000e+00
       21  1    1    2  505  502 -5.3576252453e+00 +6.6038304718e+01 +3.0462269403e+02 3.1174468329e+02 0.0000000000e+00 0.0000e+00 -1.0000e+00
<mgrwt>
<rscale>  4 0.24613380E+03</rscale>
<asrwt>0</asrwt>
<pdfrwt beam="1">  1       21 0.12573659E+00 0.24613380E+03</pdfrwt>
<pdfrwt beam="2">  1       21 0.77448722E-01 0.24613380E+03</pdfrwt>
<totfact> 0.66034656E+02</totfact>
</mgrwt>
</event>
<event>
 6      1 +2.5196620e+02 1.81294200e+02 7.54677100e-03 1.09711200e-01
       21 -1    0    0  501  502 +0.0000000000e+00 +0.0000000000e+00 +4.5704853891e+01 4.5704853891e+01 0.0000000000e+00 0.0000e+00 -1.0000e+00
       21 -1    0    0  505  503 -0.0000000000e+00 -0.0000000000e+00 -1.3565145908e+03 1.3565145908e+03 0.0000000000e+00 0.0000e+00 -1.0000e+00
        6  1    1    2  501    0 -4.4994440634e+01 +2.7530488393e+01 -3.2277970448e+02 3.6999752041e+02 1.7300000000e+02 0.0000e+00 -1.0000e+00
       -6  1    1    2    0  503 +3.0218595981e+01 -4.7547138378e+01 -8.8598978181e+02 9.0447818514e+02 1.7300000000e+02 0.0000e+00 -1.0000e+00
       21  1    1    2  504  502 -5.0709049541e+00 +4.3379680078e+01 -4.3385884512e+01 6.1561722650e+01 0.0000000000e+00 0.0000e+00 1.0000e+00
       21  1    1    2  505  504 +1.9846749607e+01 -2.3363030093e+01 -5.8654366078e+01 6.6182016478e+01 0.0000000000e+00 0.0000e+00 -1.0000e+00
<mgrwt>
<rscale>  4 0.18129418E+03</rscale>
<asrwt>0</asrwt>
<pdfrwt beam="1">  1       21 0.70315169E-02 0.18129418E+03</pdfrwt>
<pdfrwt beam="2">  1       21 0.20869452E+00 0.18129418E+03</pdfrwt>
<totfact> 0.17911399E+04</totfact>
</mgrwt>
</event>
<event>
 6      1 +2.5196620e+02 2.08308800e+02 7.54677100e-03 1.12691600e-01
       21 -1    0    0  504  502 +0.0000000000e+00 +0.0000000000e+00 +2.7530756739e+02 2.7530756739e+02 0.0000000000e+00 0.0000e+00 1.0000e+00
       21 -1    0    0  505  503 -0.0000000000e+00 -0.0000000000e+00 -8.0641751262e+02 8.0641751262e+02 0.0000000000e+00 0.0000e+00 1.0000e+00
        6  1    1    2  501    0 +9.7028671671e+01 -2.6126731463e+01 -2.6714240335e+02 3.3375325151e+02 1.7300000000e+02 0.0000e+00 1.0000e+00
       -6  1    1    2    0  503 -1.2712168323e+02 +1.1101038403e+01 -4.7276720628e+02 5.1934669223e+02 1.7300000000e+02 0.0000e+00 1.0000e+00
       21  1    1    2  504  501 +2.5682252332e+01 -8.0786078101e+00 +2.0249002262e+02 2.0427200310e+02 0.0000000000e+00 0.0000e+00 1.0000e+00
       21  1    1    2  505  502 +4.4107592233e+00 +2.3104300871e+01 +6.3096417842e+00 2.4353133168e+01 0.0000000000e+00 0.0000e+00 -1.0000e+00
<mgrwt>
<rscale>  4 0.20830878E+03</rscale>
<asrwt>0</asrwt>
<pdfrwt beam="1">  1       21 0.42355011E-01 0.20830878E+03</pdfrwt>
<pdfrwt beam="2">  1       21 0.12406423E+00 0.20830878E+03</pdfrwt>
<totfact> 0.25713410E+03</totfact>
</mgrwt>
</event>
<event>
 6      1 +2.5196620e+02 3.78491200e+02 7.54677100e-03 1.16558800e-01
       21 -1    0    0  505  502 +0.0000000000e+00 +0.0000000000e+00 +3.3010705519e+02 3.3010705519e+02 0.0000000000e+00 0.0000e+00 -1.0000e+00
       21 -1    0    0  504  503 -0.0000000000e+00 -0.0000000000e+00 -1.3953615902e+03 1.3953615902e+03 0.0000000000e+00 0.0000e+00 -1.0000e+00
        6  1    1    2  501    0 +9.2148509385e+00 -6.2138068260e+01 -9.2258884791e+02 9.4076842809e+02 1.7300000000e+02 0.0000e+00 -1.0000e+00
       -6  1    1    2    0  502 -1.5499285110e+02 -2.5019213021e+02 -1.5654863870e+02 3.7557337790e+02 1.7300000000e+02 0.0000e+00 -1.0000e+00
       21  1    1    2  504  501 -1.7773026973e+01 -1.0652038836e+01 -3.8112561034e+01 4.3381029583e+01 0.0000000000e+00 0.0000e+00 1.0000e+00
       21  1    1    2  505  503 +1.6355102713e+02 +3.2298223731e+02 +5.1995512590e+01 3.6574580985e+02 0.0000000000e+00 0.0000e+00 -1.0000e+00
<mgrwt>
<rscale>  4 0.31708964E+03</rscale>
<asrwt>0</asrwt>
<pdfrwt beam="1">  1       21 0.50785702E-01 0.37849121E+03</pdfrwt>
<pdfrwt beam="2">  1       21 0.21467101E+00 0.37849121E+03</pdfrwt>
<totfact> 0.33902552E+02</totfact>
</mgrwt>
</event>
<event>
 6      1 +2.5196620e+02 1.87130400e+02 7.54677100e-03 1.16558800e-01
       21 -1    0    0  505  502 +0.0000000000e+00 +0.0000000000e+00 +1.4694131338e+02 1.4694131338e+02 0.0000000000e+00 0.0000e+00 1.0000e+00
       21 -1    0    0  504  503 -0.0000000000e+00 -0.0000000000e+00 -2.5283693402e+03 2.5283693402e+03 0.0000000000e+00 0.0000e+00 1.0000e+00
        6  1    1    2  501    0 -7.4292022897e+01 -1.3835867154e+01 -1.6692491644e+03 1.6798906241e+03 1.7300000000e+02 0.0000e+00 1.0000e+00
       -6  1    1    2    0  502 +9.9092153845e+01 -1.1670179733e+00 -7.0698388121e+02 7.3455825172e+02 1.7300000000e+02 0.0000e+00 1.0000e+00
       21  1    1    2  504  501 +2.5647404809e+01 +7.1759603718e+00 -1.2648892022e+02 1.2926225558e+02 0.0000000000e+00 0.0000e+00 1.0000e+00
       21  1    1    2  505  503 -5.0447535757e+01 +7.8269247555e+00 +1.2129393901e+02 1.3159952224e+02 0.0000000000e+00 0.0000e+00 1.0000e+00
<mgrwt>
<rscale>  4 0.18713037E+03</rscale>
<asrwt>0</asrwt>
<pdfrwt beam="1">  1       21 0.22606356E-01 0.18713037E+03</pdfrwt>
<pdfrwt beam="2">  1       21 0.38897990E+00 0.18713037E+03</pdfrwt>
<totfact> 0.18873991E+02</totfact>
</mgrwt>
</event>
<event>
 6      1 +2.5196620e+02 1.76547800e+02 7.54677100e-03 1.06301000e-01
       21 -1    0    0  505  502 +0.0000000000e+00 +0.0000000000e+00 +1.8953996888e+02 1.8953996888e+02 0.0000000000e+00 0.0000e+00 -1.0000e+00
       21 -1    0    0  501  503 -0.0000000000e+00 -0.0000000000e+00 -5.7744521767e+02 5.7744521767e+02 0.0000000000e+00 0.0000e+00 -1.0000e+00
        6  1    1    2  501    0 -1.9859535483e+01 -4.4403271279e+01 -8.7663323160e+01 1.9994976839e+02 1.7300000000e+02 0.0000e+00 1.0000e+00
       -6  1    1    2    0  502 -4.9376100126e+01 +2.4153083379e+01 +4.9283848568e+01 1.8809377563e+02 1.7300000000e+02 0.0000e+00 -1.0000e+00
       21  1    1    2  504  503 +6.7663077608e+01 +4.0648093887e+01 -3.4968444390e+02 3.5848259360e+02 0.0000000000e+00 0.0000e+00 -1.0000e+00
       21  1    1    2  505  504 +1.5725580007e+00 -2.0397905987e+01 +1.5866970804e-01 2.0459048937e+01 0.0000000000e+00 0.0000e+00 1.0000e+00
<mgrwt>
<rscale>  4 0.17654777E+03</rscale>
<asrwt>0</asrwt>
<pdfrwt beam="1">  1       21 0.29159996E-01 0.17654777E+03</pdfrwt>
<pdfrwt beam="2">  1       21 0.88837724E-01 0.17654777E+03</pdfrwt>
<totfact> 0.12326625E+04</totfact>
</mgrwt>
</event>
<event>
 6      1 +2.5196620e+02 1.75769700e+02 7.54677100e-03 1.16321900e-01
       21 -1    0    0  505  502 +0.0000000000e+00 +0.0000000000e+00 +8.3605330851e+02 8.3605330851e+02 0.0000000000e+00 0.0000e+00 -1.0000e+00
       21 -1    0    0  504  503 -0.0000000000e+00 -0.0000000000e+00 -2.7832899468e+02 2.7832899468e+02 0.0000000000e+00 0.0000e+00 -1.0000e+00
        6  1    1    2  501    0 -1.0457318158e+01 -2.9302404483e+01 +7.2921186036e+02 7.5009794274e+02 1.7300000000e+02 0.0000e+00 -1.0000e+00
       -6  1    1    2    0  502 +1.0993968071e+01 +2.8683407725e+01 -5.4428209207e+01 1.8394302153e+02 1.7300000000e+02 0.0000e+00 -1.0000e+00
       21  1    1    2  504  501 +5.1718867668e+01 -4.2581681198e+01 -7.4958660027e+01 1.0053278848e+02 0.0000000000e+00 0.0000e+00 -1.0000e+00
       21  1    1    2  505  503 -5.2255517581e+01 +4.3200677956e+01 -4.2100677301e+01 7.9808550436e+01 0.0000000000e+00 0.0000e+00 1.0000e+00
<mgrwt>
<rscale>  4 0.17576966E+03</rscale>
<asrwt>0</asrwt>
<pdfrwt beam="1">  1       21 0.12862358E+00 0.17576966E+03</pdfrwt>
<pdfrwt beam="2">  1       21 0.42819846E-01 0.17576966E+03</pdfrwt>
<totfact> 0.23664640E+03</totfact>
</mgrwt>
</event>
<event>
 6      1 +2.5196620e+02 2.55533800e+02 7.54677100e-03 1.16726300e-01
       21 -1    0    0  504  502 +0.0000000000e+00 +0.0000000000e+00 +7.7131499858e+02 7.7131499858e+02 0.0000000000e+00 0.0000e+00 -1.0000e+00
       21 -1    0    0  502  503 -0.0000000000e+00 -0.0000000000e+00 -1.3099569343e+02 1.3099569343e+02 0.0000000000e+00 0.0000e+00 -1.0000e+00
        6  1    1    2  501    0 -1.6428027560e+02 -2.3178771261e+01 +3.7536479590e+02 4.4536838054e+02 1.7300000000e+02 0.0000e+00 -1.0000e+00
       -6  1    1    2    0  505 +2.0330676612e+02 +5.3942055027e+01 +1.5835680765e+02 3.1503851349e+02 1.7300000000e+02 0.0000e+00 -1.0000e+00
       21  1    1    2  504  501 -1.4747895704e+01 -4.6530150723e+01 +1.0133800249e+02 1.1248086994e+02 0.0000000000e+00 0.0000e+00 -1.0000e+00
       21  1    1    2  505  503 -2.4278594820e+01 +1.5766866957e+01 +5.2596991085e+00 2.9422928046e+01 0.0000000000e+00 0.0000e+00 -1.0000e+00
<mgrwt>
<rscale>  4 0.25553379E+03</rscale>
<asrwt>0</asrwt>
<pdfrwt beam="1">  1       21 0.11866384E+00 0.25553379E+03</pdfrwt>
<pdfrwt beam="2">  1       21 0.20153184E-01 0.25553379E+03</pdfrwt>
<totfact> 0.11879227E+04</totfact>
</mgrwt>
</event>
<event>
 6      1 +2.5196620e+02 1.77782400e+02 7.54677100e-03 1.13287100e-01
       21 -1    0    0  505  502 +0.0000000000e+00 +0.0000000000e+00 +1.3910240120e+02 1.3910240120e+02 0.0000000000e+00 0.0000e+00 1.0000e+00
       21 -1    0    0  502  503 -0.0000000000e+00 -0.0000000000e+00 -4.7800457566e+02 4.7800457566e+02 0.0000000000e+00 0.0000e+00 1.0000e+00
        6  1    1    2  501    0 -5.3976601298e+01 -3.5190812849e+01 -1.8209634883e+02 2.5930666604e+02 1.7300000000e+02 0.0000e+00 1.0000e+00
       -6  1    1    2    0  503 +8.1487838606e+00 +3.8290275635e+01 -9.5206173836e+01 2.0131011754e+02 1.7300000000e+02 0.0000e+00 1.0000e+00
       21  1    1    2  504  501 +4.3616973685e+01 +3.0631465150e+01 -9.5024926839e+01 1.0895165796e+02 0.0000000000e+00 0.0000e+00 1.0000e+00
       21  1    1    2  505  504 +2.2108437523e+00 -3.3730927936e+01 +3.3425275039e+01 4.7538535326e+01 0.0000000000e+00 0.0000e+00 1.0000e+00
<mgrwt>
<rscale>  4 0.17778242E+03</rscale>
<asrwt>0</asrwt>
<pdfrwt beam="1">  1       21 0.21400369E-01 0.17778242E+03</pdfrwt>
<pdfrwt beam="2">  1       21 0.73539167E-01 0.17778242E+03</pdfrwt>
<totfact> 0.34047074E+04</totfact>
</mgrwt>
</event>
<event>
 6      1 +2.5196620e+02 1.83318100e+02 7.54677100e-03 1.13287100e-01
       21 -1    0    0  504  502 +0.0000000000e+00 +0.0000000000e+00 +1.6206123362e+02 1.6206123362e+02 0.0000000000e+00 0.0000e+00 1.0000e+00
       21 -1    0    0  505  503 -0.0000000000e+00 -0.0000000000e+00 -4.1745768818e+02 4.1745768818e+02 0.0000000000e+00 0.0000e+00 1.0000e+00
        6  1    1    2  501    0 +4.5497810648e+01 -3.9630932514e+01 +2.6404496605e+01 1.8511309793e+02 1.7300000000e+02 0.0000e+00 1.0000e+00
       -6  1    1    2    0  503 -3.2183411305e+01 +5.2116548987e+01 -2.9313842896e+02 3.4584829792e+02 1.7300000000e+02 0.0000e+00 1.0000e+00
       21  1    1    2  504  501 +9.5993927922e+00 -2.0530215424e+01 +2.8988271750e+00 2.2848222827e+01 0.0000000000e+00 0.0000e+00 -1.0000e+00
       21  1    1    2  505  502 -2.2913792135e+01 +8.0445989518e+00 +8.4386506227e+00 2.5709303115e+01 0.0000000000e+00 0.0000e+00 1.0000e+00
<mgrwt>
<rscale>  4 0.18331806E+03</rscale>
<asrwt>0</asrwt>
<pdfrwt beam="1">  1       21 0.24932498E-01 0.18331806E+03</pdfrwt>
<pdfrwt beam="2">  1       21 0.64224258E-01 0.18331806E+03</pdfrwt>
<totfact> 0.34227587E+04</totfact>
</mgrwt>
</event>
<event>
 6      1 +2.5196620e+02 1.81845800e+02 7.54677100e-03 9.49153200e-02
       21 -1    0    0  505  502 +0.0000000000e+00 +0.0000000000e+00 +9.2835372712e+01 9.2835372712e+01 0.0000000000e+00 0.0000e+00 -1.0000e+00
       21 -1    0    0  501  503 -0.0000000000e+00 -0.0000000000e+00 -6.4511676261e+02 6.4511676261e+02 0.0000000000e+00 0.0000e+00 -1.0000e+00
        6  1    1    2  501    0 -3.0928413825e+01 -1.8432034445e+01 -1.5725375332e+02 2.3654608348e+02 1.7300000000e+02 0.0000e+00 -1.0000e+00
       -6  1    1    2    0  502 +7.4614269345e+01 +2.4668873651e+01 -3.5678841028e+02 4.0423113713e+02 1.7300000000e+02 0.0000e+00 -1.0000e+00
       21  1    1    2  504  503 -1.6505097033e+01 -2.2693365174e+01 -5.4634967437e+01 6.1419758366e+01 0.0000000000e+00 0.0000e+00 1.0000e+00
       21  1    1    2  505  504 -2.7180758487e+01 +1.6456525969e+01 +1.6395741128e+01 3.5755156356e+01 0.0000000000e+00 0.0000e+00 1.0000e+00
<mgrwt>
<rscale>  4 0.18184579E+03</rscale>
<asrwt>0</asrwt>
<pdfrwt beam="1">  1       21 0.14282364E-01 0.18184579E+03</pdfrwt>
<pdfrwt beam="2">  1       21 0.99248736E-01 0.18184579E+03</pdfrwt>
<totfact> 0.36049629E+04</totfact>
</mgrwt>
</event>
<event>
 6      1 +2.5196620e+02 1.95935800e+02 7.54677100e-03 1.09711200e-01
       21 -1    0    0  504  502 +0.0000000000e+00 +0.0000000000e+00 +1.1333386561e+02 1.1333386561e+02 0.0000000000e+00 0.0000e+00 -1.0000e+00
       21 -1    0    0  502  503 -0.0000000000e+00 -0.0000000000e+00 -1.4884694949e+03 1.4884694949e+03 0.0000000000e+00 0.0000e+00 -1.0000e+00
        6  1    1    2  501    0 -6.1268607460e+01 +8.1007255555e+01 -1.1608719869e+03 1.1780784302e+03 1.7300000000e+02 0.0000e+00 -1.0000e+00
       -6  1    1    2    0  503 +9.5163476791e+01 +4.3836731327e+01 -1.2848535086e+02 2.3961475688e+02 1.7300000000e+02 0.0000e+00 -1.0000e+00
       21  1    1    2  504  505 -5.7559610033e+01 -5.1432215741e+01 -1.3415262659e+01 7.8347627886e+01 0.0000000000e+00 0.0000e+00 -1.0000e+00
       21  1    1    2  505  501 +2.3664740702e+01 -7.3411771142e+01 -7.2363028865e+01 1.0576254555e+02 0.0000000000e+00 0.0000e+00 -1.0000e+00
<mgrwt>
<rscale>  4 0.19593584E+03</rscale>
<asrwt>0</asrwt>
<pdfrwt beam="1">  1       21 0.17435981E-01 0.19593584E+03</pdfrwt>
<pdfrwt beam="2">  1       21 0.22899528E+00 0.19593584E+03</pdfrwt>
<totfact> 0.26314548E+03</totfact>
</mgrwt>
</event>
<event>
 6      1 +2.5196620e+02 4.54935100e+02 7.54677100e-03 1.06301000e-01
       21 -1    0    0  501  502 +0.0000000000e+00 +0.0000000000e+00 +5.8903197539e+02 5.8903197539e+02 0.0000000000e+00 0.0000e+00 1.0000e+00
       21 -1    0    0  504  503 -0.0000000000e+00 -0.0000000000e+00 -4.5022910301e+02 4.5022910301e+02 0.0000000000e+00 0.0000e+00 -1.0000e+00
        6  1    1    2  501    0 +3.4542874261e+02 -2.6162895733e+02 +1.8040807133e+02 5.0024673886e+02 1.7300000000e+02 0.0000e+00 1.0000e+00
       -6  1    1    2    0  503 -2.9835754190e+02 +2.8865397342e+02 -9.7205123217e+01 4.6012626002e+02 1.7300000000e+02 0.0000e+00 -1.0000e+00
       21  1    1    2  504  505 -2.8430936816e+01 -8.6120441502e+00 +3.1305404146e+01 4.3156851153e+01 0.0000000000e+00 0.0000e+00 1.0000e+00
       21  1    1    2  505  502 -1.8640263889e+01 -1.8412971939e+01 +2.4294520115e+01 3.5731228374e+01 0.0000000000e+00 0.0000e+00 1.0000e+00
<mgrwt>
<rscale>  4 0.45493513E+03</rscale>
<asrwt>0</asrwt>
<pdfrwt beam="1">  1       21 0.90620304E-01 0.45493513E+03</pdfrwt>
<pdfrwt beam="2">  1       21 0.69266016E-01 0.45493513E+03</pdfrwt>
<totfact> 0.16832920E+03</totfact>
</mgrwt>
</event>
<event>
 6      1 +2.5196620e+02 2.84683900e+02 7.54677100e-03 9.49153200e-02
       21 -1    0    0  505  502 +0.0000000000e+00 +0.0000000000e+00 +1.6762269882e+03 1.6762269882e+03 0.0000000000e+00 0.0000e+00 -1.0000e+00
       21 -1    0    0  501  503 -0.0000000000e+00 -0.0000000000e+00 -1.6237445209e+02 1.6237445209e+02 0.0000000000e+00 0.0000e+00 -1.0000e+00
        6  1    1    2  501    0 +2.1068516289e+02 +4.8844045637e+01 +1.1520082676e+03 1.1848316451e+03 1.7300000000e+02 0.0000e+00 -1.0000e+00
       -6  1    1    2    0  502 -1.8470686441e+02 -2.0679053522e+01 +1.5735355819e+02 2.9871958638e+02 1.7300000000e+02 0.0000e+00 -1.0000e+00
       21  1    1    2  504  503 -5.4164999422e+01 -2.5787779133e+01 -6.2461076874e+01 8.6603942401e+01 0.0000000000e+00 0.0000e+00 -1.0000e+00
       21  1    1    2  505  504 +2.8186700937e+01 -2.3772129819e+00 +2.6695178721e+02 2.6844626641e+02 0.0000000000e+00 0.0000e+00 1.0000e+00
<mgrwt>
<rscale>  4 0.28468387E+03</rscale>
<asrwt>0</asrwt>
<pdfrwt beam="1">  1       21 0.25788106E+00 0.28468387E+03</pdfrwt>
<pdfrwt beam="2">  1       21 0.24980686E-01 0.28468387E+03</pdfrwt>
<totfact> 0.82360394E+02</totfact>
</mgrwt>
</event>
<event>
 6      1 +2.5196620e+02 1.78790300e+02 7.54677100e-03 1.07655700e-01
       21 -1    0    0  501  502 +0.0000000000e+00 +0.0000000000e+00 +7.8667263617e+02 7.8667263617e+02 0.0000000000e+00 0.0000e+00 1.0000e+00
       21 -1    0    0  504  503 -0.0000000000e+00 -0.0000000000e+00 -3.1999966874e+02 3.1999966874e+02 0.0000000000e+00 0.0000e+00 -1.0000e+00
        6  1    1    2  501    0 +2.6349224149e+01 -3.7067164628e+01 +6.9863655640e+02 7.2117286017e+02 1.7300000000e+02 0.0000e+00 1.0000e+00
       -6  1    1    2    0  505 -9.5309997030e+00 +4.3044214320e+01 -8.2897400236e+01 1.9683653956e+02 1.7300000000e+02 0.0000e+00 1.0000e+00
       21  1    1    2  504  502 +9.1143520217e+00 -2.1576010151e+01 -1.5589061686e+02 1.5764035033e+02 0.0000000000e+00 0.0000e+00 -1.0000e+00
       21  1    1    2  505  503 -2.5932576467e+01 +1.5598960459e+01 +6.8244281258e+00 3.1022554841e+01 0.0000000000e+00 0.0000e+00 1.0000e+00
<mgrwt>
<rscale>  4 0.17879034E+03</rscale>
<asrwt>0</asrwt>
<pdfrwt beam="1">  1       21 0.12102656E+00 0.17879034E+03</pdfrwt>
<pdfrwt beam="2">  1       21 0.49230719E-01 0.17879034E+03</pdfrwt>
<totfact> 0.20617623E+03</totfact>
</mgrwt>
</event>
<event>
 6      1 +2.5196620e+02 1.77488100e+02 7.54677100e-03 9.49153200e-02
       21 -1    0    0  505  502 +0.0000000000e+00 +0.0000000000e+00 +1.5286242039e+02 1.5286242039e+02 0.0000000000e+00 0.0000e+00 -1.0000e+00
       21 -1    0    0  504  503 -0.0000000000e+00 -0.0000000000e+00 -1.5232001302e+03 1.5232001302e+03 0.0000000000e+00 0.0000e+00 -1.0000e+00
        6  1    1    2  501    0 +9.9056162698e+01 +4.6104739154e+01 +1.1978486584e+01 2.0496403217e+02 1.7300000000e+02 0.0000e+00 -1.0000e+00
       -6  1    1    2    0  502 -8.7742175081e+01 -6.5039047890e+01 -7.5988217145e+02 7.8694261641e+02 1.7300000000e+02 0.0000e+00 -1.0000e+00
       21  1    1    2  504  501 +8.3309941176e+01 +1.0738568296e+02 -4.3930511930e+02 4.5984912639e+02 0.0000000000e+00 0.0000e+00 -1.0000e+00
       21  1    1    2  505  503 -9.4623928793e+01 -8.8451374224e+01 -1.8312890561e+02 2.2430677558e+02 0.0000000000e+00 0.0000e+00 -1.0000e+00
<mgrwt>
<rscale>  4 0.17748810E+03</rscale>
<asrwt>0</asrwt>
<pdfrwt beam="1">  1       21 0.23517296E-01 0.17748810E+03</pdfrwt>
<pdfrwt beam="2">  1       21 0.23433847E+00 0.17748810E+03</pdfrwt>
<totfact> 0.14270655E+03</totfact>
</mgrwt>
</event>
<event>
 6      1 +2.5196620e+02 2.43695900e+02 7.54677100e-03 1.06301000e-01
       21 -1    0    0  505  502 +0.0000000000e+00 +0.0000000000e+00 +3.5509123755e+02 3.5509123755e+02 0.0000000000e+00 0.0000e+00 1.0000e+00
       21 -1    0    0  504  503 -0.0000000000e+00 -0.0000000000e+00 -4.9436383945e+02 4.9436383945e+02 0.0000000000e+00 0.0000e+00 1.0000e+00
        6  1    1    2  501    0 +1.6369375921e+02 -2.5607198490e+01 +1.5460278859e+02 2.8510067986e+02 1.7300000000e+02 0.0000e+00 1.0000e+00
       -6  1    1    2    0  503 -1.6163622518e+02 -8.9890637439e-01 -6.9028357294e+01 2.4661912220e+02 1.7300000000e+02 0.0000e+00 1.0000e+00
       21  1    1    2  504  502 -2.2165575155e+01 +2.3777478929e+01 -2.6804480300e+02 2.7000869920e+02 0.0000000000e+00 0.0000e+00 1.0000e+00
       21  1    1    2  505  501 +2.0108041120e+01 +2.7286259363e+00 +4.3197769803e+01 4.7726575753e+01 0.0000000000e+00 0.0000e+00 1.0000e+00
<mgrwt>
<rscale>  4 0.24369586E+03</rscale>
<asrwt>0</asrwt>
<pdfrwt beam="1">  1       21 0.54629421E-01 0.24369586E+03</pdfrwt>
<pdfrwt beam="2">  1       21 0.76055975E-01 0.24369586E+03</pdfrwt>
<totfact> 0.46997095E+03</totfact>
</mgrwt>
</event>
<event>
 6      1 +2.5196620e+02 1.85452200e+02 7.54677100e-03 1.09711200e-01
       21 -1    0    0  501  502 +0.0000000000e+00 +0.0000000000e+00 +2.1139686563e+02 2.1139686563e+02 0.0000000000e+00 0.0000e+00 -1.0000e+00
       21 -1    0    0  505  503 -0.0000000000e+00 -0.0000000000e+00 -3.4739652004e+02 3.4739652004e+02 0.0000000000e+00 0.0000e+00 -1.0000e+00
        6  1    1    2  501    0 +2.4048942279e+00 -8.6744832321e+01 -2.8694608103e+01 1.9565998565e+02 1.7300000000e+02 0.0000e+00 -1.0000e+00
       -6  1    1    2    0  503 +2.6211367258e+01 +5.3685769311e+01 -1.5929441945e+02 2.4263740369e+02 1.7300000000e+02 0.0000e+00 -1.0000e+00
       21  1    1    2  504  502 +3.2275202153e+01 +3.3116779529e+01 +3.2647965139e+01 5.6606531320e+01 0.0000000000e+00 0.0000e+00 1.0000e+00
       21  1    1    2  505  504 -6.0891463639e+01 -5.7716519193e-02 +1.9341408009e+01 6.3889465008e+01 0.0000000000e+00 0.0000e+00 -1.0000e+00
<mgrwt>
<rscale>  4 0.18545225E+03</rscale>
<asrwt>0</asrwt>
<pdfrwt beam="1">  1       21 0.32522595E-01 0.18545225E+03</pdfrwt>
<pdfrwt beam="2">  1       21 0.53445617E-01 0.18545225E+03</pdfrwt>
<totfact> 0.30265089E+04</totfact>
</mgrwt>
</event>
<event>
 6      1 +2.5196620e+02 2.11493000e+02 7.54677100e-03 1.16128000e-01
       21 -1    0    0  501  502 +0.0000000000e+00 +0.0000000000e+00 +6.0563324709e+02 6.0563324709e+02 0.0000000000e+00 0.0000e+00 -1.0000e+00
       21 -1    0    0  504  503 -0.0000000000e+00 -0.0000000000e+00 -5.7527874198e+02 5.7527874198e+02 0.0000000000e+00 0.0000e+00 -1.0000e+00
        6  1    1    2  501    0 +1.7515622281e+01 +5.9565410130e+00 -5.7740877417e+00 1.7408221475e+02 1.7300000000e+02 0.0000e+00 -1.0000e+00
       -6  1    1    2    0  503 -8.2394742040e+01 -1.2959019280e+02 +4.7253337369e+02 5.2611719306e+02 1.7300000000e+02 0.0000e+00 -1.0000e+00
       21  1    1    2  504  505 +6.9755590626e+00 -2.7141718496e+01 -1.4367277781e+02 1.4638032105e+02 0.0000000000e+00 0.0000e+00 1.0000e+00
       21  1    1    2  505  502 +5.7903560696e+01 +1.5077537028e+02 -2.9273200303e+02 3.3433226022e+02 0.0000000000e+00 0.0000e+00 -1.0000e+00
<mgrwt>
<rscale>  4 0.21149305E+03</rscale>
<asrwt>0</asrwt>
<pdfrwt beam="1">  1       21 0.93174346E-01 0.21149305E+03</pdfrwt>
<pdfrwt beam="2">  1       21 0.88504422E-01 0.21149305E+03</pdfrwt>
<totfact> 0.10392723E+03</totfact>
</mgrwt>
</event>
<event>
 6      1 +2.5196620e+02 2.72201200e+02 7.54677100e-03 9.49153200e-02
       21 -1    0    0  505  502 +0.0000000000e+00 +0.0000000000e+00 +6.3387927089e+02 6.3387927089e+02 0.0000000000e+00 0.0000e+00 -1.0000e+00
       21 -1    0    0  501  503 -0.0000000000e+00 -0.0000000000e+00 -3.9294425456e+02 3.9294425456e+02 0.0000000000e+00 0.0000e+00 -1.0000e+00
        6  1    1    2  501    0 -1.4671831050e+01 +1.7753273467e+02 -1.5806093783e+02 2.9435589781e+02 1.7300000000e+02 0.0000e+00 -1.0000e+00
       -6  1    1    2    0  502 +3.7480051058e+00 -2.3170704599e+02 +6.6786941949e+01 2.9680245673e+02 1.7300000000e+02 0.0000e+00 1.0000e+00
       21  1    1    2  504  503 +6.1714867250e+01 +4.2953633503e+01 -2.1458200509e+01 7.8193310711e+01 0.0000000000e+00 0.0000e+00 1.0000e+00
       21  1    1    2  505  504 -5.0791041306e+01 +1.1220677821e+01 +3.5366721272e+02 3.5747186021e+02 0.0000000000e+00 0.0000e+00 -1.0000e+00
<mgrwt>
<rscale>  4 0.27220124E+03</rscale>
<asrwt>0</asrwt>
<pdfrwt beam="1">  1       21 0.97519888E-01 0.27220124E+03</pdfrwt>
<pdfrwt beam="2">  1       21 0.60452962E-01 0.27220124E+03</pdfrwt>
<totfact> 0.20887427E+03</totfact>
</mgrwt>
</event>
<event>
 6      1 +2.5196620e+02 2.90902300e+02 7.54677100e-03 1.09711200e-01
       21 -1    0    0  504  502 +0.0000000000e+00 +0.0000000000e+00 +7.7783885632e+02 7.7783885632e+02 0.0000000000e+00 0.0000e+00 1.0000e+00
       21 -1    0    0  505  503 -0.0000000000e+00 -0.0000000000e+00 -1.0868858774e+03 1.0868858774e+03 0.0000000000e+00 0.0000e+00 1.0000e+00
        6  1    1    2  501    0 +1.2224093931e+02 +2.0336694117e+02 -9.1200298191e+02 9.5811241461e+02 1.7300000000e+02 0.0000e+00 1.0000e+00
       -6  1    1    2    0  503 -1.2586483593e+01 -2.3195843385e+02 +5.2149273142e+01 2.9429862605e+02 1.7300000000e+02 0.0000e+00 1.0000e+00
       21  1    1    2  504  501 +6.3814177926e+01 +2.0389223624e+01 +2.9910641572e+02 3.0651691253e+02 0.0000000000e+00 0.0000e+00 1.0000e+00
       21  1    1    2  505  502 -1.7346863364e+02 +8.2022690511e+00 +2.5170027197e+02 3.0579678054e+02 0.0000000000e+00 0.0000e+00 1.0000e+00
<mgrwt>
<rscale>  4 0.29090234E+03</rscale>
<asrwt>0</asrwt>
<pdfrwt beam="1">  1       21 0.11966752E+00 0.29090234E+03</pdfrwt>
<pdfrwt beam="2">  1       21 0.16721321E+00 0.29090234E+03</pdfrwt>
<totfact> 0.10629343E+02</totfact>
</mgrwt>
</event>
<event>
 6      1 +2.5196620e+02 1.97636600e+02 7.54677100e-03 9.49153200e-02
       21 -1    0    0  505  502 +0.0000000000e+00 +0.0000000000e+00 +9.4267530218e+02 9.4267530218e+02 0.0000000000e+00 0.0000e+00 1.0000e+00
       21 -1    0    0  504  503 -0.0000000000e+00 -0.0000000000e+00 -1.3378880248e+02 1.3378880248e+02 0.0000000000e+00 0.0000e+00 1.0000e+00
        6  1    1    2  501    0 +1.1519909804e+02 -1.7279542257e+01 +7.9282728810e+01 2.2312365598e+02 1.7300000000e+02 0.0000e+00 1.0000e+00
       -6  1    1    2    0  502 -7.5243784923e+01 +1.0996823902e+02 +5.4401838816e+02 5.8620785343e+02 1.7300000000e+02 0.0000e+00 1.0000e+00
       21  1    1    2  504  501 -5.5146901899e+01 -3.5305299464e+01 -6.7672835136e+00 6.5828877292e+01 0.0000000000e+00 0.0000e+00 1.0000e+00
       21  1    1    2  505  503 +1.5191588783e+01 -5.7383397299e+01 +1.9235266624e+02 2.0130371796e+02 0.0000000000e+00 0.0000e+00 -1.0000e+00
<mgrwt>
<rscale>  4 0.19763659E+03</rscale>
<asrwt>0</asrwt>
<pdfrwt beam="1">  1       21 0.14502696E+00 0.19763659E+03</pdfrwt>
<pdfrwt beam="2">  1       21 0.20582893E-01 0.19763659E+03</pdfrwt>
<totfact> 0.71143904E+03</totfact>
</mgrwt>
</event>
<event>
 6      1 +2.5196620e+02 1.79895200e+02 7.54677100e-03 1.14954000e-01
       21 -1    0    0  501  502 +0.0000000000e+00 +0.0000000000e+00 +2.2669863022e+02 2.2669863022e+02 0.0000000000e+00 0.0000e+00 1.0000e+00
       21 -1    0    0  504  503 -0.0000000000e+00 -0.0000000000e+00 -1.8521190589e+03 1.8521190589e+03 0.0000000000e+00 0.0000e+00 -1.0000e+00
        6  1    1    2  501    0 +1.0723903340e+02 -8.9246912235e+01 -1.7135305525e+02 2.8063515669e+02 1.7300000000e+02 0.0000e+00 1.0000e+00
       -6  1    1    2    0  503 +1.8048670201e+01 +4.5021386273e+01 -1.5933185472e+03 1.6034168743e+03 1.7300000000e+02 0.0000e+00 -1.0000e+00
       21  1    1    2  504  505 -3.5057066057e+01 +2.2530724582e+01 +2.9604462336e+01 5.1118055723e+01 0.0000000000e+00 0.0000e+00 -1.0000e+00
       21  1    1    2  505  502 -9.0230637543e+01 +2.1694801380e+01 +1.0964671145e+02 1.4364760245e+02 0.0000000000e+00 0.0000e+00 1.0000e+00
<mgrwt>
<rscale>  4 0.17989520E+03</rscale>
<asrwt>0</asrwt>
<pdfrwt beam="1">  1       21 0.34876712E-01 0.17989520E+03</pdfrwt>
<pdfrwt beam="2">  1       21 0.28494140E+00 0.17989520E+03</pdfrwt>
<totfact> 0.33671996E+02</totfact>
</mgrwt>
</event>
<event>
 6      1 +2.5196620e+02 1.74271300e+02 7.54677100e-03 1.07655700e-01
       21 -1    0    0  501  502 +0.0000000000e+00 +0.0000000000e+00 +2.4274990620e+02 2.4274990620e+02 0.0000000000e+00 0.0000e+00 1.0000e+00
       21 -1    0    0  504  503 -0.0000000000e+00 -0.0000000000e+00 -6.1425187333e+02 6.1425187333e+02 0.0000000000e+00 0.0000e+00 1.0000e+00
        6  1    1    2  501    0 -1.3321463594e+01 +1.0415184613e+01 +4.7921666295e+01 1.8030924425e+02 1.7300000000e+02 0.0000e+00 1.0000e+00
       -6  1    1    2    0  505 -9.8657916297e+01 -2.2490125907e+01 -1.0972402631e+02 2.2848972003e+02 1.7300000000e+02 0.0000e+00 1.0000e+00
       21  1    1    2  504  502 +1.4487646582e+02 -4.0132998498e+00 -3.5879074890e+02 3.8695748916e+02 0.0000000000e+00 0.0000e+00 1.0000e+00
       21  1    1    2  505  503 -3.2897085931e+01 +1.6088241143e+01 +4.9091141778e+01 6.1245326082e+01 0.0000000000e+00 0.0000e+00 -1.0000e+00
<mgrwt>
<rscale>  4 0.17427128E+03</rscale>
<asrwt>0</asrwt>
<pdfrwt beam="1">  1       21 0.37346140E-01 0.17427128E+03</pdfrwt>
<pdfrwt beam="2">  1       21 0.94500287E-01 0.17427128E+03</pdfrwt>
<totfact> 0.65782000E+03</totfact>
</mgrwt>
</event>
<event>
 6      1 +2.5196620e+02 3.15172100e+02 7.54677100e-03 1.02776600e-01
       21 -1    0    0  501  502 +0.0000000000e+00 +0.0000000000e+00 +1.4391045467e+03 1.4391045467e+03 0.0000000000e+00 0.0000e+00 1.0000e+00
       21 -1    0    0  502  503 -0.0000000000e+00 -0.0000000000e+00 -3.1380116249e+02 3.1380116249e+02 0.0000000000e+00 0.0000e+00 1.0000e+00
        6  1    1    2  501    0 -2.5348265066e+02 -2.0487158762e+01 +1.0605214090e+03 1.1042227297e+03 1.7300000000e+02 0.0000e+00 1.0000e+00
       -6  1    1    2    0  505 +3.0079817108e+02 -1.4404225611e+01 +2.6679464314e+02 4.3794452051e+02 1.7300000000e+02 0.0000e+00 1.0000e+00
       21  1    1    2  504  503 -2.8911199292e+01 +1.6499218117e+01 -1.2909541709e+02 1.3331807213e+02 0.0000000000e+00 0.0000e+00 1.0000e+00
       21  1    1    2  505  504 -1.8404321128e+01 +1.8392166256e+01 -7.2917250885e+01 7.7420386801e+01 0.0000000000e+00 0.0000e+00 1.0000e+00
<mgrwt>
<rscale>  4 0.31517211E+03</rscale>
<asrwt>0</asrwt>
<pdfrwt beam="1">  1       21 0.22140070E+00 0.31517211E+03</pdfrwt>
<pdfrwt beam="2">  1       21 0.48277103E-01 0.31517211E+03</pdfrwt>
<totfact> 0.35748048E+02</totfact>
</mgrwt>
</event>
<event>
 6      1 +2.5196620e+02 2.36133200e+02 7.54677100e-03 1.14954000e-01
       21 -1    0    0  501  502 +0.0000000000e+00 +0.0000000000e+00 +2.6211322754e+02 2.6211322754e+02 0.0000000000e+00 0.0000e+00 -1.0000e+00
       21 -1    0    0  505  503 -0.0000000000e+00 -0.0000000000e+00 -2.7352404372e+03 2.7352404372e+03 0.0000000000e+00 0.0000e+00 1.0000e+00
        6  1    1    2  501    0 -3.8430258262e+01 -1.7659448313e+02 -5.3927889298e+02 5.9448567740e+02 1.7300000000e+02 0.0000e+00 -1.0000e+00
       -6  1    1    2    0  503 -3.9978044429e+00 +1.5701747257e+02 -2.1503276913e+03 2.1629860492e+03 1.7300000000e+02 0.0000e+00 1.0000e+00
       21  1    1    2  504  502 +2.7325658577e+01 -1.4115726847e+00 +2.1185456942e+02 2.1361423815e+02 0.0000000000e+00 0.0000e+00 -1.0000e+00
       21  1    1    2  505  504 +1.5102404128e+01 +2.0988583242e+01 +4.6248052340e+00 2.6267699945e+01 0.0000000000e+00 0.0000e+00 1.0000e+00
<mgrwt>
<rscale>  4 0.23613316E+03</rscale>
<asrwt>0</asrwt>
<pdfrwt beam="1">  1       21 0.40325112E-01 0.23613316E+03</pdfrwt>
<pdfrwt beam="2">  1       21 0.42080622E+00 0.23613316E+03</pdfrwt>
<totfact> 0.35314204E+01</totfact>
</mgrwt>
</event>
<event>
 6      1 +2.5196620e+02 2.73981000e+02 7.54677100e-03 1.13287100e-01
       21 -1    0    0  505  502 +0.0000000000e+00 +0.0000000000e+00 +3.4936162030e+02 3.4936162030e+02 0.0000000000e+00 0.0000e+00 -1.0000e+00
       21 -1    0    0  502  503 -0.0000000000e+00 -0.0000000000e+00 -9.2721202535e+02 9.2721202535e+02 0.0000000000e+00 0.0000e+00 -1.0000e+00
        6  1    1    2  501    0 +1.9892524714e+02 +4.3884534506e+01 -6.1832294397e+02 6.7360921116e+02 1.7300000000e+02 0.0000e+00 -1.0000e+00
       -6  1    1    2    0  503 -2.8995299033e+02 +1.4098839353e+02 -2.8127527619e+01 3.6697496035e+02 1.7300000000e+02 0.0000e+00 -1.0000e+00
       21  1    1    2  504  501 +4.9454726230e+01 -1.7006108781e+02 +3.5023204091e+01 1.8053578138e+02 0.0000000000e+00 0.0000e+00 -1.0000e+00
       21  1    1    2  505  504 +4.1573016959e+01 -1.4811840223e+01 +3.3576862445e+01 5.5453692767e+01 0.0000000000e+00 0.0000e+00 -1.0000e+00
<mgrwt>
<rscale>  4 0.27398103E+03</rscale>
<asrwt>0</asrwt>
<pdfrwt beam="1">  1       21 0.53747942E-01 0.27398103E+03</pdfrwt>
<pdfrwt beam="2">  1       21 0.14264800E+00 0.27398103E+03</pdfrwt>
<totfact> 0.10395654E+03</totfact>
</mgrwt>
</event>
<event>
 6      1 +2.5196620e+02 2.00240100e+02 7.54677100e-03 1.11396600e-01
       21 -1    0    0  503  502 +0.0000000000e+00 +0.0000000000e+00 +7.2902107169e+01 7.2902107169e+01 0.0000000000e+00 0.0000e+00 1.0000e+00
       21 -1    0    0  501  503 -0.0000000000e+00 -0.0000000000e+00 -1.0567090767e+03 1.0567090767e+03 0.0000000000e+00 0.0000e+00 -1.0000e+00
        6  1    1    2  501    0 -8.1359408692e+01 -5.0776001737e+01 -7.1981338778e+02 7.4649706561e+02 1.7300000000e+02 0.0000e+00 1.0000e+00
       -6  1    1    2    0  504 +6.9220873918e+01 +1.0081404595e+02 -2.5084089998e+02 3.2833695855e+02 1.7300000000e+02 0.0000e+00 1.0000e+00
       21  1    1    2  504  505 +1.0482014637e+01 -2.9892627149e+01 -1.3801840964e+01 3.4553329835e+01 0.0000000000e+00 0.0000e+00 -1.0000e+00
       21  1    1    2  505  502 +1.6565201370e+00 -2.0145417060e+01 +6.4915918648e-01 2.0223829883e+01 0.0000000000e+00 0.0000e+00 -1.0000e+00
<mgrwt>
<rscale>  4 0.20024010E+03</rscale>
<asrwt>0</asrwt>
<pdfrwt beam="1">  1       21 0.11215709E-01 0.20024010E+03</pdfrwt>
<pdfrwt beam="2">  1       21 0.16257062E+00 0.20024010E+03</pdfrwt>
<totfact> 0.15873541E+04</totfact>
</mgrwt>
</event>
<event>
 6      1 +2.5196620e+02 2.47111900e+02 7.54677100e-03 1.06301000e-01
       21 -1    0    0  505  502 +0.0000000000e+00 +0.0000000000e+00 +4.4949154747e+02 4.4949154747e+02 0.0000000000e+00 0.0000e+00 1.0000e+00
       21 -1    0    0  502  503 -0.0000000000e+00 -0.0000000000e+00 -5.7436252761e+02 5.7436252761e+02 0.0000000000e+00 0.0000e+00 -1.0000e+00
        6  1    1    2  501    0 +4.0439817034e+01 +1.1936295928e+02 +5.5250922133e+01 2.2105329504e+02 1.7300000000e+02 0.0000e+00 -1.0000e+00
       -6  1    1    2    0  504 -1.4905270702e+02 -2.0262914318e+02 +8.6409820760e+01 3.1728683594e+02 1.7300000000e+02 0.0000e+00 1.0000e+00
       21  1    1    2  504  503 -3.9692687294e+01 +2.9814962522e+01 -3.1632226186e+02 3.2019402674e+02 0.0000000000e+00 0.0000e+00 -1.0000e+00
       21  1    1    2  505  501 +1.4830557728e+02 +5.3451221376e+01 +4.9790538819e+01 1.6531991736e+02 0.0000000000e+00 0.0000e+00 -1.0000e+00
<mgrwt>
<rscale>  4 0.24711187E+03</rscale>
<asrwt>0</asrwt>
<pdfrwt beam="1">  1       21 0.69152547E-01 0.24711187E+03</pdfrwt>
<pdfrwt beam="2">  1       21 0.88363465E-01 0.24711187E+03</pdfrwt>
<totfact> 0.19953020E+03</totfact>
</mgrwt>
</event>
<event>
 6      1 +2.5196620e+02 2.13588300e+02 7.54677100e-03 9.49153200e-02
       21 -1    0    0  505  502 +0.0000000000e+00 +0.0000000000e+00 +1.2609469965e+03 1.2609469965e+03 0.0000000000e+00 0.0000e+00 1.0000e+00
       21 -1    0    0  501  503 -0.0000000000e+00 -0.0000000000e+00 -1.3333213398e+02 1.3333213398e+02 0.0000000000e+00 0.0000e+00 -1.0000e+00
        6  1    1    2  501    0 -1.0499508691e+02 +8.6368392377e+01 +2.0626104977e+02 3.0158927058e+02 1.7300000000e+02 0.0000e+00 -1.0000e+00
       -6  1    1    2    0  502 +9.5459608334e+01 -7.7099937122e+01 +9.7469812479e+02 9.9750808097e+02 1.7300000000e+02 0.0000e+00 1.0000e+00
       21  1    1    2  504  503 -1.2276445356e+01 -1.5871910321e+01 -6.6090832218e+01 6.9069723839e+01 0.0000000000e+00 0.0000e+00 -1.0000e+00
       21  1    1    2  505  504 +2.1811923929e+01 +6.6034550653e+00 +1.2746520162e+01 2.6112055081e+01 0.0000000000e+00 0.0000e+00 1.0000e+00
<mgrwt>
<rscale>  4 0.21358834E+03</rscale>
<asrwt>0</asrwt>
<pdfrwt beam="1">  1       21 0.19399184E+00 0.21358834E+03</pdfrwt>
<pdfrwt beam="2">  1       21 0.20512637E-01 0.21358834E+03</pdfrwt>
<totfact> 0.31699181E+03</totfact>
</mgrwt>
</event>
<event>
 6      1 +2.5196620e+02 5.80364400e+02 7.54677100e-03 1.06301000e-01
       21 -1    0    0  505  502 +0.0000000000e+00 +0.0000000000e+00 +3.5892716745e+02 3.5892716745e+02 0.0000000000e+00 0.0000e+00 1.0000e+00
       21 -1    0    0  504  503 -0.0000000000e+00 -0.0000000000e+00 -1.6581833294e+03 1.6581833294e+03 0.0000000000e+00 0.0000e+00 -1.0000e+00
        6  1    1    2  501    0 -5.3109267205e+02 +5.5322453859e+01 -1.1967436844e+02 5.7390848980e+02 1.7300000000e+02 0.0000e+00 1.0000e+00
       -6  1    1    2    0  503 +5.8489595033e+02 +1.6971382135e+00 -8.4358034397e+02 1.0409913303e+03 1.7300000000e+02 0.0000e+00 -1.0000e+00
       21  1    1    2  504  502 -3.7107686590e+01 -3.6518866688e+01 -3.6164799093e+02 3.6537635031e+02 0.0000000000e+00 0.0000e+00 -1.0000e+00
       21  1    1    2  505  501 -1.6695591691e+01 -2.0500725385e+01 +2.5646541359e+01 3.6834326475e+01 0.0000000000e+00 0.0000e+00 -1.0000e+00
<mgrwt>
<rscale>  4 0.58036440E+03</rscale>
<asrwt>0</asrwt>
<pdfrwt beam="1">  1       21 0.55219564E-01 0.58036440E+03</pdfrwt>
<pdfrwt beam="2">  1       21 0.25510513E+00 0.58036440E+03</pdfrwt>
<totfact> 0.14193046E+02</totfact>
</mgrwt>
</event>
<event>
 6      1 +2.5196620e+02 2.14513500e+02 7.54677100e-03 9.28652600e-02
       21 -1    0    0  505  502 +0.0000000000e+00 +0.0000000000e+00 +1.6107453536e+03 1.6107453536e+03 0.0000000000e+00 0.0000e+00 -1.0000e+00
       21 -1    0    0  504  503 -0.0000000000e+00 -0.0000000000e+00 -4.5614966310e+02 4.5614966310e+02 0.0000000000e+00 0.0000e+00 1.0000e+00
        6  1    1    2  501    0 -2.4590948110e+01 -6.7103808506e+01 +4.8707043715e+02 5.2179904810e+02 1.7300000000e+02 0.0000e+00 -1.0000e+00
       -6  1    1    2    0  502 -1.1496886943e+02 +1.6981798506e+02 +1.0203996273e+03 1.0550831192e+03 1.7300000000e+02 0.0000e+00 -1.0000e+00
       21  1    1    2  504  501 +6.9694166918e+00 +8.0855886355e+01 -1.3867778430e+01 8.2332025396e+01 0.0000000000e+00 0.0000e+00 -1.0000e+00
       21  1    1    2  505  503 +1.3259040084e+02 -1.8357006291e+02 -3.3900659558e+02 4.0768082398e+02 0.0000000000e+00 0.0000e+00 1.0000e+00
<mgrwt>
<rscale>  4 0.21451349E+03</rscale>
<asrwt>0</asrwt>
<pdfrwt beam="1">  1       21 0.24780697E+00 0.21451349E+03</pdfrwt>
<pdfrwt beam="2">  1       21 0.70176872E-01 0.21451349E+03</pdfrwt>
<totfact> 0.12232582E+02</totfact>
</mgrwt>
</event>
<event>
 6      1 +2.5196620e+02 1.99448600e+02 7.54677100e-03 9.49153200e-02
       21 -1    0    0  503  502 +0.0000000000e+00 +0.0000000000e+00 +5.6732743759e+02 5.6732743759e+02 0.0000000000e+00 0.0000e+00 -1.0000e+00
       21 -1    0    0  504  503 -0.0000000000e+00 -0.0000000000e+00 -6.2981200623e+02 6.2981200623e+02 0.0000000000e+00 0.0000e+00 1.0000e+00
        6  1    1    2  501    0 +2.9897629309e+01 -1.4629163458e+02 +3.1814894376e+02 3.9171783340e+02 1.7300000000e+02 0.0000e+00 -1.0000e+00
       -6  1    1    2    0  505 -2.0719388643e+01 +4.7698444399e+01 -1.5318732458e+02 2.3685394461e+02 1.7300000000e+02 0.0000e+00 1.0000e+00
       21  1    1    2  504  501 -2.3144308379e+01 +4.4329320449e+01 -3.9177239086e+02 3.9495107786e+02 0.0000000000e+00 0.0000e+00 1.0000e+00
       21  1    1    2  505  502 +1.3966067712e+01 +5.4263869729e+01 +1.6432620304e+02 1.7361658795e+02 0.0000000000e+00 0.0000e+00 -1.0000e+00
<mgrwt>
<rscale>  4 0.19944864E+03</rscale>
<asrwt>0</asrwt>
<pdfrwt beam="1">  1       21 0.87281145E-01 0.19944864E+03</pdfrwt>
<pdfrwt beam="2">  1       21 0.96894154E-01 0.19944864E+03</pdfrwt>
<totfact> 0.99051878E+02</totfact>
</mgrwt>
</event>
<event>
 6      1 +2.5196620e+02 2.20022900e+02 7.54677100e-03 1.12691600e-01
       21 -1    0    0  505  502 +0.0000000000e+00 +0.0000000000e+00 +8.5561452945e+02 8.5561452945e+02 0.0000000000e+00 0.0000e+00 -1.0000e+00
       21 -1    0    0  501  503 -0.0000000000e+00 -0.0000000000e+00 -2.2478932644e+02 2.2478932644e+02 0.0000000000e+00 0.0000e+00 -1.0000e+00
        6  1    1    2  501    0 -1.5338326181e+02 +3.6990538731e+01 -6.3467053734e+01 2.4259388259e+02 1.7300000000e+02 0.0000e+00 -1.0000e+00
       -6  1    1    2    0  504 +9.9547664816e+01 -9.4197402797e+00 +8.4150279037e+01 2.1681498689e+02 1.7300000000e+02 0.0000e+00 -1.0000e+00
       21  1    1    2  504  502 +7.4764672458e+01 -3.6651154302e+01 +5.5662242611e+02 5.6281576791e+02 0.0000000000e+00 0.0000e+00 -1.0000e+00
       21  1    1    2  505  503 -2.0929075466e+01 +9.0803558505e+00 +5.3519551595e+01 5.8179218499e+01 0.0000000000e+00 0.0000e+00 -1.0000e+00
<mgrwt>
<rscale>  4 0.22002294E+03</rscale>
<asrwt>0</asrwt>
<pdfrwt beam="1">  1       21 0.13163300E+00 0.22002294E+03</pdfrwt>
<pdfrwt beam="2">  1       21 0.34582974E-01 0.22002294E+03</pdfrwt>
<totfact> 0.32987012E+03</totfact>
</mgrwt>
</event>
<event>
 6      1 +2.5196620e+02 3.58356100e+02 7.54677100e-03 1.06301000e-01
       21 -1    0    0  501  502 +0.0000000000e+00 +0.0000000000e+00 +1.5978907020e+03 1.5978907020e+03 0.0000000000e+00 0.0000e+00 1.0000e+00
       21 -1    0    0  504  503 -0.0000000000e+00 -0.0000000000e+00 -3.3985330788e+02 3.3985330788e+02 0.0000000000e+00 0.0000e+00 1.0000e+00
        6  1    1    2  501    0 +5.4813764848e+01 -1.9699829606e+02 +6.3875205410e+02 6.9263703633e+02 1.7300000000e+02 0.0000e+00 -1.0000e+00
       -6  1    1    2    0  503 -2.3690670541e+02 -2.4005478327e+02 +2.1436830566e+02 4.3546969643e+02 1.7300000000e+02 0.0000e+00 1.0000e+00
       21  1    1    2  504  505 +5.6252385653e+01 +7.5052532679e+01 -1.2461438691e+02 1.5596781391e+02 0.0000000000e+00 0.0000e+00 1.0000e+00
       21  1    1    2  505  502 +1.2584055491e+02 +3.6200054665e+02 +5.2953142124e+02 6.5366946320e+02 0.0000000000e+00 0.0000e+00 1.0000e+00
<mgrwt>
<rscale>  4 0.33142805E+03</rscale>
<asrwt>0</asrwt>
<pdfrwt beam="1">  1       21 0.24582933E+00 0.35835606E+03</pdfrwt>
<pdfrwt beam="2">  1       21 0.52285125E-01 0.35835606E+03</pdfrwt>
<totfact> 0.20648392E+02</totfact>
</mgrwt>
</event>
<event>
 6      1 +2.5196620e+02 1.80450700e+02 7.54677100e-03 9.49153200e-02
       21 -1    0    0  504  502 +0.0000000000e+00 +0.0000000000e+00 +4.2045826937e+02 4.2045826937e+02 0.0000000000e+00 0.0000e+00 -1.0000e+00
       21 -1    0    0  501  503 -0.0000000000e+00 -0.0000000000e+00 -2.1221639263e+02 2.1221639263e+02 0.0000000000e+00 0.0000e+00 -1.0000e+00
        6  1    1    2  501    0 -3.1047902863e+01 +3.5333745048e+00 +2.2738565276e+02 2.8741901831e+02 1.7300000000e+02 0.0000e+00 -1.0000e+00
       -6  1    1    2    0  505 +3.3694799368e+01 -2.8719866164e+01 -8.5737610833e+01 1.9809116116e+02 1.7300000000e+02 0.0000e+00 -1.0000e+00
       21  1    1    2  504  503 +2.4332688689e+01 +1.0166634334e+01 -3.3374476205e+01 4.2535818488e+01 0.0000000000e+00 0.0000e+00 -1.0000e+00
       21  1    1    2  505  502 -2.6979585194e+01 +1.5019857326e+01 +9.9968311017e+01 1.0462866404e+02 0.0000000000e+00 0.0000e+00 -1.0000e+00
<mgrwt>
<rscale>  4 0.18045068E+03</rscale>
<asrwt>0</asrwt>
<pdfrwt beam="1">  1       21 0.64685888E-01 0.18045068E+03</pdfrwt>
<pdfrwt beam="2">  1       21 0.32648676E-01 0.18045068E+03</pdfrwt>
<totfact> 0.20032739E+04</totfact>
</mgrwt>
</event>
<event>
 6      1 +2.5196620e+02 2.24838200e+02 7.54677100e-03 1.09711200e-01
       21 -1    0    0  501  502 +0.0000000000e+00 +0.0000000000e+00 +9.2857460192e+02 9.2857460192e+02 0.0000000000e+00 0.0000e+00 1.0000e+00
       21 -1    0    0  505  503 -0.0000000000e+00 -0.0000000000e+00 -1.6271802530e+02 1.6271802530e+02 0.0000000000e+00 0.0000e+00 1.0000e+00
        6  1    1    2  501    0 -1.8413160477e+02 +1.4007156855e+00 +1.2166362434e+02 2.8042369259e+02 1.7300000000e+02 0.0000e+00 1.0000e+00
       -6  1    1    2    0  503 +8.5984385223e+01 +1.0368490815e+02 +1.2577838732e+02 2.5277080013e+02 1.7300000000e+02 0.0000e+00 1.0000e+00
       21  1    1    2  504  502 -1.5294299091e+01 -7.1538356510e+01 +3.0937670672e+02 3.1790816079e+02 0.0000000000e+00 0.0000e+00 1.0000e+00
       21  1    1    2  505  504 +1.1344151864e+02 -3.3547267321e+01 +2.0903785824e+02 2.4018997371e+02 0.0000000000e+00 0.0000e+00 1.0000e+00
<mgrwt>
<rscale>  4 0.22483824E+03</rscale>
<asrwt>0</asrwt>
<pdfrwt beam="1">  1       21 0.14285763E+00 0.22483824E+03</pdfrwt>
<pdfrwt beam="2">  1       21 0.25033543E-01 0.22483824E+03</pdfrwt>
<totfact> 0.50008921E+03</totfact>
</mgrwt>
</event>
<event>
 6      1 +2.5196620e+02 1.80939400e+02 7.54677100e-03 1.16726300e-01
       21 -1    0    0  504  502 +0.0000000000e+00 +0.0000000000e+00 +5.6505190454e+02 5.6505190454e+02 0.0000000000e+00 0.0000e+00 1.0000e+00
       21 -1    0    0  505  503 -0.0000000000e+00 -0.0000000000e+00 -2.3550402253e+02 2.3550402253e+02 0.0000000000e+00 0.0000e+00 1.0000e+00
        6  1    1    2  501    0 -1.5172682404e+01 -2.5851365548e+01 +2.6334094991e+02 3.1650585981e+02 1.7300000000e+02 0.0000e+00 1.0000e+00
       -6  1    1    2    0  503 -8.5996570335e+00 +1.1721693470e+02 +1.0310830457e+02 2.3318251726e+02 1.7300000000e+02 0.0000e+00 1.0000e+00
       21  1    1    2  504  501 +9.7903681941e+00 -1.1258936694e+02 +7.5313871022e+01 1.3581014699e+02 0.0000000000e+00 0.0000e+00 -1.0000e+00
       21  1    1    2  505  502 +1.3981971243e+01 +2.1223797785e+01 -1.1221524351e+02 1.1505740301e+02 0.0000000000e+00 0.0000e+00 1.0000e+00
<mgrwt>
<rscale>  4 0.18093940E+03</rscale>
<asrwt>0</asrwt>
<pdfrwt beam="1">  1       21 0.86931062E-01 0.18093940E+03</pdfrwt>
<pdfrwt beam="2">  1       21 0.36231388E-01 0.18093940E+03</pdfrwt>
<totfact> 0.84321435E+03</totfact>
</mgrwt>
</event>
<event>
 6      1 +2.5196620e+02 2.57284600e+02 7.54677100e-03 1.06301000e-01
       21 -1    0    0  501  502 +0.0000000000e+00 +0.0000000000e+00 +1.1850954867e+03 1.1850954867e+03 0.0000000000e+00 0.0000e+00 -1.0000e+00
       21 -1    0    0  505  503 -0.0000000000e+00 -0.0000000000e+00 -1.8271679686e+02 1.8271679686e+02 0.0000000000e+00 0.0000e+00 -1.0000e+00
        6  1    1    2  501    0 +2.1358827437e+01 +1.7838239707e+02 +2.1978198293e+01 2.5037675669e+02 1.7300000000e+02 0.0000e+00 -1.0000e+00
       -6  1    1    2    0  504 +4.8602090505e+00 -1.5424559454e+02 +6.8760147733e+02 7.2563084050e+02 1.7300000000e+02 0.0000e+00 -1.0000e+00
       21  1    1    2  504  503 +7.2959679429e+00 +2.3110349401e+01 -4.3907477937e+01 5.0151630247e+01 0.0000000000e+00 0.0000e+00 -1.0000e+00
       21  1    1    2  505  502 -3.3515004430e+01 -4.7247151925e+01 +3.3670649218e+02 3.4165305613e+02 0.0000000000e+00 0.0000e+00 -1.0000e+00
<mgrwt>
<rscale>  4 0.25728459E+03</rscale>
<asrwt>0</asrwt>
<pdfrwt beam="1">  1       21 0.18232238E+00 0.25728459E+03</pdfrwt>
<pdfrwt beam="2">  1       21 0.28110277E-01 0.25728459E+03</pdfrwt>
<totfact> 0.20040364E+03</totfact>
</mgrwt>
</event>
<event>
 6      1 +2.5196620e+02 2.24048900e+02 7.54677100e-03 1.16558800e-01
       21 -1    0    0  505  502 +0.0000000000e+00 +0.0000000000e+00 +6.0405740422e+02 6.0405740422e+02 0.0000000000e+00 0.0000e+00 -1.0000e+00
       21 -1    0    0  504  503 -0.0000000000e+00 -0.0000000000e+00 -2.9510076763e+02 2.9510076763e+02 0.0000000000e+00 0.0000e+00 -1.0000e+00
        6  1    1    2  501    0 +1.5301976846e+02 -3.1831422822e+01 +7.7396875586e+01 2.4565741464e+02 1.7300000000e+02 0.0000e+00 -1.0000e+00
       -6  1    1    2    0  502 -1.3049863559e+02 +4.3164199262e+01 -1.4286384874e+02 2.6311997504e+02 1.7300000000e+02 0.0000e+00 -1.0000e+00
       21  1    1    2  504  501 +2.6127718039e+01 -1.6655653013e+01 +3.2241383285e+01 4.4716610151e+01 0.0000000000e+00 0.0000e+00 1.0000e+00
       21  1    1    2  505  503 -4.8648850913e+01 +5.3228765737e+00 +3.4218222646e+02 3.4566417202e+02 0.0000000000e+00 0.0000e+00 -1.0000e+00
<mgrwt>
<rscale>  4 0.22404894E+03</rscale>
<asrwt>0</asrwt>
<pdfrwt beam="1">  1       21 0.92931908E-01 0.22404894E+03</pdfrwt>
<pdfrwt beam="2">  1       21 0.45400118E-01 0.22404894E+03</pdfrwt>
<totfact> 0.44298028E+03</totfact>
</mgrwt>
</event>
<event>
 6      1 +2.5196620e+02 1.81852400e+02 7.54677100e-03 1.16128000e-01
       21 -1    0    0  501  502 +0.0000000000e+00 +0.0000000000e+00 +1.5154530600e+02 1.5154530600e+02 0.0000000000e+00 0.0000e+00 1.0000e+00
       21 -1    0    0  502  503 -0.0000000000e+00 -0.0000000000e+00 -6.0688344974e+02 6.0688344974e+02 0.0000000000e+00 0.0000e+00 1.0000e+00
        6  1    1    2  501    0 +5.3513907163e+01 +2.1307269789e+01 -4.3825021389e+00 1.8238954008e+02 1.7300000000e+02 0.0000e+00 1.0000e+00
       -6  1    1    2    0  505 -5.6566632045e+01 +1.9838031256e+00 -8.6804334346e+01 2.0166237080e+02 1.7300000000e+02 0.0000e+00 1.0000e+00
       21  1    1    2  504  503 +3.9086576467e+01 -3.1119346775e+01 -2.1664560657e+02 2.2233194338e+02 0.0000000000e+00 0.0000e+00 1.0000e+00
       21  1    1    2  505  504 -3.6033851585e+01 +7.8282738607e+00 -1.4750570068e+02 1.5204490148e+02 0.0000000000e+00 0.0000e+00 1.0000e+00
<mgrwt>
<rscale>  4 0.18185240E+03</rscale>
<asrwt>0</asrwt>
<pdfrwt beam="1">  1       21 0.23314663E-01 0.18185240E+03</pdfrwt>
<pdfrwt beam="2">  1       21 0.93366683E-01 0.18185240E+03</pdfrwt>
<totfact> 0.16800958E+04</totfact>
</mgrwt>
</event>
<event>
 6      1 +2.5196620e+02 2.51186100e+02 7.54677100e-03 1.09711200e-01
       21 -1    0    0  504  502 +0.0000000000e+00 +0.0000000000e+00 +1.5895438096e+02 1.5895438096e+02 0.0000000000e+00 0.0000e+00 1.0000e+00
       21 -1    0    0  505  503 -0.0000000000e+00 -0.0000000000e+00 -1.2450833185e+03 1.2450833185e+03 0.0000000000e+00 0.0000e+00 -1.0000e+00
        6  1    1    2  501    0 +9.8972093083e+01 +1.6959480918e+02 -1.0578767450e+03 1.0897660676e+03 1.7300000000e+02 0.0000e+00 -1.0000e+00
       -6  1    1    2    0  503 -5.5971962943e+01 -1.0168743438e+02 -7.2802887321e+01 2.2068632796e+02 1.7300000000e+02 0.0000e+00 1.0000e+00
       21  1    1    2  504  501 -3.2127554558e+01 -3.5076839509e+01 +2.8575457670e+01 5.5489829814e+01 0.0000000000e+00 0.0000e+00 1.0000e+00
       21  1    1    2  505  502 -1.0872575583e+01 -3.2830535292e+01 +1.5975237079e+01 3.8095474103e+01 0.0000000000e+00 0.0000e+00 -1.0000e+00
<mgrwt>
<rscale>  4 0.25118613E+03</rscale>
<asrwt>0</asrwt>
<pdfrwt beam="1">  1       21 0.24454520E-01 0.25118613E+03</pdfrwt>
<pdfrwt beam="2">  1       21 0.19155128E+00 0.25118613E+03</pdfrwt>
<totfact> 0.22838699E+03</totfact>
</mgrwt>
</event>
<event>
 6      1 +2.5196620e+02 1.77129900e+02 7.54677100e-03 1.12691600e-01
       21 -1    0    0  505  502 +0.0000000000e+00 +0.0000000000e+00 +1.6211669235e+02 1.6211669235e+02 0.0000000000e+00 0.0000e+00 1.0000e+00
       21 -1    0    0  504  503 -0.0000000000e+00 -0.0000000000e+00 -2.6608700331e+02 2.6608700331e+02 0.0000000000e+00 0.0000e+00 1.0000e+00
        6  1    1    2  501    0 +3.3248714732e+01 +2.7086159408e+01 -5.5936984863e+01 1.8680761049e+02 1.7300000000e+02 0.0000e+00 -1.0000e+00
       -6  1    1    2    0  503 -1.3319434988e+01 -3.2958514302e+01 -5.9820816409e+01 1.8647037590e+02 1.7300000000e+02 0.0000e+00 -1.0000e+00
       21  1    1    2  504  502 -1.2506045774e+01 +2.5577990386e+01 +1.7095173220e+01 3.3209632947e+01 0.0000000000e+00 0.0000e+00 1.0000e+00
       21  1    1    2  505  501 -7.4232339702e+00 -1.9705635492e+01 -5.3076829043e+00 2.1716076315e+01 0.0000000000e+00 0.0000e+00 1.0000e+00
<mgrwt>
<rscale>  4 0.17712991E+03</rscale>
<asrwt>0</asrwt>
<pdfrwt beam="1">  1       21 0.24941030E-01 0.17712991E+03</pdfrwt>
<pdfrwt beam="2">  1       21 0.40936462E-01 0.17712991E+03</pdfrwt>
<totfact> 0.87994419E+04</totfact>
</mgrwt>
</event>
<event>
 6      1 +2.5196620e+02 1.91087700e+02 7.54677100e-03 9.49153200e-02
       21 -1    0    0  505  502 +0.0000000000e+00 +0.0000000000e+00 +1.1648175814e+03 1.1648175814e+03 0.0000000000e+00 0.0000e+00 1.0000e+00
       21 -1    0    0  501  503 -0.0000000000e+00 -0.0000000000e+00 -3.9211477888e+02 3.9211477888e+02 0.0000000000e+00 0.0000e+00 -1.0000e+00
        6  1    1    2  501    0 +4.6602026822e+01 -5.6043310698e+01 -2.7328152359e+02 3.3154847717e+02 1.7300000000e+02 0.0000e+00 -1.0000e+00
       -6  1    1    2    0  502 -8.3583388009e+01 +2.0785747019e+02 +2.8737964258e+02 4.0336951996e+02 1.7300000000e+02 0.0000e+00 1.0000e+00
       21  1    1    2  504  503 -3.3116849715e+01 -7.2197225918e+00 -1.1138042672e+01 3.5677809965e+01 0.0000000000e+00 0.0000e+00 1.0000e+00
       21  1    1    2  505  504 +7.0098210902e+01 -1.4459443690e+02 +7.6974272624e+02 7.8633655324e+02 0.0000000000e+00 0.0000e+00 1.0000e+00
<mgrwt>
<rscale>  4 0.19108770E+03</rscale>
<asrwt>0</asrwt>
<pdfrwt beam="1">  1       21 0.17920270E+00 0.19108770E+03</pdfrwt>
<pdfrwt beam="2">  1       21 0.60325351E-01 0.19108770E+03</pdfrwt>
<totfact> 0.47281993E+02</totfact>
</mgrwt>
</event>
<event>
 6      1 +2.5196620e+02 4.36335200e+02 7.54677100e-03 1.16268000e-01
       21 -1    0    0  504  502 +0.0000000000e+00 +0.0000000000e+00 +2.4587774771e+02 2.4587774771e+02 0.0000000000e+00 0.0000e+00 -1.0000e+00
       21 -1    0    0  505  503 -0.0000000000e+00 -0.0000000000e+00 -7.8944845479e+02 7.8944845479e+02 0.0000000000e+00 0.0000e+00 1.0000e+00
        6  1    1    2  501    0 -5.6295579041e+01 +7.9451924758e+01 -2.2917611902e+02 3.0320371715e+02 1.7300000000e+02 0.0000e+00 1.0000e+00
       -6  1    1    2    0  503 +4.6857199439e+01 +1.2421655382e+02 -1.7560190263e+02 2.7998281660e+02 1.7300000000e+02 0.0000e+00 1.0000e+00
       21  1    1    2  504  501 +8.7521393538e+01 +4.9979463356e+01 +6.2898153680e+01 1.1880285695e+02 0.0000000000e+00 0.0000e+00 -1.0000e+00
       21  1    1    2  505  502 -7.8083013936e+01 -2.5364794194e+02 -2.0169083911e+02 3.3333681179e+02 0.0000000000e+00 0.0000e+00 1.0000e+00
<mgrwt>
<rscale>  4 0.43633517E+03</rscale>
<asrwt>0</asrwt>
<pdfrwt beam="1">  1       21 0.37827346E-01 0.43633517E+03</pdfrwt>
<pdfrwt beam="2">  1       21 0.12145361E+00 0.43633517E+03</pdfrwt>
<totfact> 0.30109165E+03</totfact>
</mgrwt>
</event>
<event>
 6      1 +2.5196620e+02 2.46862500e+02 7.54677100e-03 1.13287100e-01
       21 -1    0    0  504  502 +0.0000000000e+00 +0.0000000000e+00 +4.0407386690e+02 4.0407386690e+02 0.0000000000e+00 0.0000e+00 1.0000e+00
       21 -1    0    0  505  503 -0.0000000000e+00 -0.0000000000e+00 -9.1494504526e+02 9.1494504526e+02 0.0000000000e+00 0.0000e+00 -1.0000e+00
        6  1    1    2  501    0 -4.3086013477e+01 -1.0319351806e+02 +1.0005756677e+02 2.2901053119e+02 1.7300000000e+02 0.0000e+00 1.0000e+00
       -6  1    1    2    0  503 +3.9641861577e+01 +1.7943519864e+02 -8.1394230283e+02 8.5217342134e+02 1.7300000000e+02 0.0000e+00 -1.0000e+00
       21  1    1    2  504  501 -2.5036647836e+01 +4.8854606369e+00 +1.1651052981e+01 2.8043689060e+01 0.0000000000e+00 0.0000e+00 -1.0000e+00
       21  1    1    2  505  502 +2.8480799737e+01 -8.1127141218e+01 +1.9136250472e+02 2.0979127057e+02 0.0000000000e+00 0.0000e+00 1.0000e+00
<mgrwt>
<rscale>  4 0.24686247E+03</rscale>
<asrwt>0</asrwt>
<pdfrwt beam="1">  1       21 0.62165211E-01 0.24686247E+03</pdfrwt>
<pdfrwt beam="2">  1       21 0.14076077E+00 0.24686247E+03</pdfrwt>
<totfact> 0.80433220E+02</totfact>
</mgrwt>
</event>
<event>
 6      1 +2.5196620e+02 2.00513500e+02 7.54677100e-03 1.06301000e-01
       21 -1    0    0  501  502 +0.0000000000e+00 +0.0000000000e+00 +9.6238070049e+01 9.6238070049e+01 0.0000000000e+00 0.0000e+00 -1.0000e+00
       21 -1    0    0  504  503 -0.0000000000e+00 -0.0000000000e+00 -8.1249499819e+02 8.1249499819e+02 0.0000000000e+00 0.0000e+00 -1.0000e+00
        6  1    1    2  501    0 -4.4982556242e+01 +7.9566791399e+01 -1.6948454262e+02 2.5885964314e+02 1.7300000000e+02 0.0000e+00 -1.0000e+00
       -6  1    1    2    0  503 -4.2110208009e+01 -1.2239897121e+02 -4.6328185414e+02 5.1118866786e+02 1.7300000000e+02 0.0000e+00 -1.0000e+00
       21  1    1    2  504  505 +3.6853138788e+01 +1.7991542666e+01 -6.9856662222e+01 8.1004954804e+01 0.0000000000e+00 0.0000e+00 -1.0000e+00
       21  1    1    2  505  502 +5.0239625463e+01 +2.4840637145e+01 -1.3633869157e+01 5.7679802432e+01 0.0000000000e+00 0.0000e+00 -1.0000e+00
<mgrwt>
<rscale>  4 0.20051347E+03</rscale>
<asrwt>0</asrwt>
<pdfrwt beam="1">  1       21 0.14805857E-01 0.20051347E+03</pdfrwt>
<pdfrwt beam="2">  1       21 0.12499923E+00 0.20051347E+03</pdfrwt>
<totfact> 0.19064364E+04</totfact>
</mgrwt>
</event>
<event>
 6      1 +2.5196620e+02 3.49306400e+02 7.54677100e-03 1.09711200e-01
       21 -1    0    0  501  502 +0.0000000000e+00 +0.0000000000e+00 +6.7923698730e+02 6.7923698730e+02 0.0000000000e+00 0.0000e+00 -1.0000e+00
       21 -1    0    0  505  503 -0.0000000000e+00 -0.0000000000e+00 -8.2579811422e+02 8.2579811422e+02 0.0000000000e+00 0.0000e+00 1.0000e+00
        6  1    1    2  501    0 -1.7010648452e+02 -6.7139578968e+01 -3.0477365324e+02 3.9529725379e+02 1.7300000000e+02 0.0000e+00 1.0000e+00
       -6  1    1    2    0  503 -1.3406642421e+02 +1.5496798703e+02 -3.9039329434e+02 4.7362939876e+02 1.7300000000e+02 0.0000e+00 -1.0000e+00
       21  1    1    2  504  502 +8.2623217636e+01 -2.0478669597e+01 +2.0271908948e+02 2.1986587102e+02 0.0000000000e+00 0.0000e+00 -1.0000e+00
       21  1    1    2  505  504 +2.2154969109e+02 -6.7349738461e+01 +3.4588673118e+02 4.1624257795e+02 0.0000000000e+00 0.0000e+00 -1.0000e+00
<mgrwt>
<rscale>  4 0.32184213E+03</rscale>
<asrwt>0</asrwt>
<pdfrwt beam="1">  1       21 0.10449800E+00 0.34930640E+03</pdfrwt>
<pdfrwt beam="2">  1       21 0.12704586E+00 0.34930640E+03</pdfrwt>
<totfact> 0.29523729E+02</totfact>
</mgrwt>
</event>
<event>
 6      1 +2.5196620e+02 2.09093000e+02 7.54677100e-03 1.17444000e-01
       21 -1    0    0  505  502 +0.0000000000e+00 +0.0000000000e+00 +5.0019955226e+02 5.0019955226e+02 0.0000000000e+00 0.0000e+00 1.0000e+00
       21 -1    0    0  504  503 -0.0000000000e+00 -0.0000000000e+00 -6.2439354626e+02 6.2439354626e+02 0.0000000000e+00 0.0000e+00 1.0000e+00
        6  1    1    2  501    0 +2.9228584974e+01 -7.3959637493e+01 -3.7535416461e+02 4.2088488574e+02 1.7300000000e+02 0.0000e+00 1.0000e+00
       -6  1    1    2    0  502 -1.3761810677e+02 +4.2070726760e+01 +3.7836648036e+02 4.4022594520e+02 1.7300000000e+02 0.0000e+00 1.0000e+00
       21  1    1    2  504  501 +6.8359515222e+01 +2.1467610213e+00 -1.7897666255e+02 1.9159926315e+02 0.0000000000e+00 0.0000e+00 1.0000e+00
       21  1    1    2  505  503 +4.0030006576e+01 +2.9742149712e+01 +5.1770352794e+01 7.1883004419e+01 0.0000000000e+00 0.0000e+00 -1.0000e+00
<mgrwt>
<rscale>  4 0.20909296E+03</rscale>
<asrwt>0</asrwt>
<pdfrwt beam="1">  1       21 0.76953778E-01 0.20909296E+03</pdfrwt>
<pdfrwt beam="2">  1       21 0.96060545E-01 0.20909296E+03</pdfrwt>
<totfact> 0.13338170E+03</totfact>
</mgrwt>
</event>
<event>
 6      1 +2.5196620e+02 2.05685100e+02 7.54677100e-03 9.49153200e-02
       21 -1    0    0  505  502 +0.0000000000e+00 +0.0000000000e+00 +5.6695715236e+02 5.6695715236e+02 0.0000000000e+00 0.0000e+00 -1.0000e+00
       21 -1    0    0  501  503 -0.0000000000e+00 -0.0000000000e+00 -2.0312335505e+02 2.0312335505e+02 0.0000000000e+00 0.0000e+00 -1.0000e+00
        6  1    1    2  501    0 -1.2268485650e+02 +2.0840591830e+01 +6.9640117549e+01 2.2419779271e+02 1.7300000000e+02 0.0000e+00 -1.0000e+00
       -6  1    1    2    0  502 +8.6025626567e+01 -4.6590151819e+01 -8.0391645330e-01 1.9874782251e+02 1.7300000000e+02 0.0000e+00 -1.0000e+00
       21  1    1    2  504  503 +2.9525484416e+01 +6.8479255951e+00 -1.6819971024e+01 3.4663521751e+01 0.0000000000e+00 0.0000e+00 -1.0000e+00
       21  1    1    2  505  504 +7.1337455154e+00 +1.8901634394e+01 +3.1181756723e+02 3.1247137044e+02 0.0000000000e+00 0.0000e+00 -1.0000e+00
<mgrwt>
<rscale>  4 0.20568506E+03</rscale>
<asrwt>0</asrwt>
<pdfrwt beam="1">  1       21 0.87224177E-01 0.20568506E+03</pdfrwt>
<pdfrwt beam="2">  1       21 0.31249747E-01 0.20568506E+03</pdfrwt>
<totfact> 0.11013627E+04</totfact>
</mgrwt>
</event>
<event>
 6      1 +2.5196620e+02 2.06539900e+02 7.54677100e-03 1.16321900e-01
       21 -1    0    0  505  502 +0.0000000000e+00 +0.0000000000e+00 +1.0373703337e+02 1.0373703337e+02 0.0000000000e+00 0.0000e+00 -1.0000e+00
       21 -1    0    0  504  503 -0.0000000000e+00 -0.0000000000e+00 -8.3180947369e+02 8.3180947369e+02 0.0000000000e+00 0.0000e+00 -1.0000e+00
        6  1    1    2  501    0 +1.8039750905e+01 -1.4919452006e+02 -1.3856340212e+02 2.6779330432e+02 1.7300000000e+02 0.0000e+00 -1.0000e+00
       -6  1    1    2    0  502 -4.4773563574e+01 +4.3699167858e+01 -3.0812424664e+02 3.5886465503e+02 1.7300000000e+02 0.0000e+00 -1.0000e+00
       21  1    1    2  504  501 -9.1839741198e+00 +8.3440159178e+01 -1.6539523279e+02 1.8547826982e+02 0.0000000000e+00 0.0000e+00 1.0000e+00
       21  1    1    2  505  503 +3.5917786789e+01 +2.2055193022e+01 -1.1598955877e+02 1.2341027790e+02 0.0000000000e+00 0.0000e+00 -1.0000e+00
<mgrwt>
<rscale>  4 0.20653988E+03</rscale>
<asrwt>0</asrwt>
<pdfrwt beam="1">  1       21 0.15959544E-01 0.20653988E+03</pdfrwt>
<pdfrwt beam="2">  1       21 0.12797069E+00 0.20653988E+03</pdfrwt>
<totfact> 0.15607641E+04</totfact>
</mgrwt>
</event>
<event>
 6      1 +2.5196620e+02 1.78113900e+02 7.54677100e-03 1.06301000e-01
       21 -1    0    0  505  502 +0.0000000000e+00 +0.0000000000e+00 +2.6758317185e+02 2.6758317185e+02 0.0000000000e+00 0.0000e+00 -1.0000e+00
       21 -1    0    0  502  503 -0.0000000000e+00 -0.0000000000e+00 -5.6042937980e+02 5.6042937980e+02 0.0000000000e+00 0.0000e+00 -1.0000e+00
        6  1    1    2  501    0 -3.2203797529e+00 -6.2785829775e+00 -2.0186437872e+02 2.6594739864e+02 1.7300000000e+02 0.0000e+00 -1.0000e+00
       -6  1    1    2    0  504 -1.1310658266e+01 -1.0356382668e+02 -5.5905432033e+01 2.0954191590e+02 1.7300000000e+02 0.0000e+00 -1.0000e+00
       21  1    1    2  504  503 -3.4536503494e+01 +3.8721800614e+01 -1.7805696461e+02 1.8546274710e+02 0.0000000000e+00 0.0000e+00 -1.0000e+00
       21  1    1    2  505  501 +4.9067541512e+01 +7.1120609047e+01 +1.4298056742e+02 1.6706049000e+02 0.0000000000e+00 0.0000e+00 -1.0000e+00
<mgrwt>
<rscale>  4 0.17811388E+03</rscale>
<asrwt>0</asrwt>
<pdfrwt beam="1">  1       21 0.41166642E-01 0.17811388E+03</pdfrwt>
<pdfrwt beam="2">  1       21 0.86219904E-01 0.17811388E+03</pdfrwt>
<totfact> 0.66642502E+03</totfact>
</mgrwt>
</event>
<event>
 6      1 +2.5196620e+02 1.76037700e+02 7.54677100e-03 9.49153200e-02
       21 -1    0    0  505  502 +0.0000000000e+00 +0.0000000000e+00 +1.9105250354e+03 1.9105250354e+03 0.0000000000e+00 0.0000e+00 -1.0000e+00
       21 -1    0    0  501  503 -0.0000000000e+00 -0.0000000000e+00 -8.9326521740e+01 8.9326521740e+01 0.0000000000e+00 0.0000e+00 -1.0000e+00
        6  1    1    2  501    0 -1.8056485881e+00 +6.8767172841e+01 +2.0267934182e+02 2.7520919321e+02 1.7300000000e+02 0.0000e+00 -1.0000e+00
       -6  1    1    2    0  502 -5.0292973487e+00 +1.6686560181e+02 +5.7505315782e+02 6.2328529360e+02 1.7300000000e+02 0.0000e+00 -1.0000e+00
       21  1    1    2  504  503 +2.0386707747e+01 -8.6291995245e+01 +6.1263413965e+01 1.0777352266e+02 0.0000000000e+00 0.0000e+00 -1.0000e+00
       21  1    1    2  505  504 -1.3551761810e+01 -1.4934077941e+02 +9.8220260003e+02 9.9358354764e+02 0.0000000000e+00 0.0000e+00 -1.0000e+00
<mgrwt>
<rscale>  4 0.17603769E+03</rscale>
<asrwt>0</asrwt>
<pdfrwt beam="1">  1       21 0.29392690E+00 0.17603769E+03</pdfrwt>
<pdfrwt beam="2">  1       21 0.13742543E-01 0.17603769E+03</pdfrwt>
<totfact> 0.17391889E+03</totfact>
</mgrwt>
</event>
<event>
 6      1 +2.5196620e+02 2.36107700e+02 7.54677100e-03 9.28652600e-02
       21 -1    0    0  505  502 +0.0000000000e+00 +0.0000000000e+00 +1.1105095436e+02 1.1105095436e+02 0.0000000000e+00 0.0000e+00 -1.0000e+00
       21 -1    0    0  504  503 -0.0000000000e+00 -0.0000000000e+00 -1.2053552399e+03 1.2053552399e+03 0.0000000000e+00 0.0000e+00 -1.0000e+00
        6  1    1    2  501    0 -1.1640707832e+02 +5.5079612560e+01 -3.0514495337e+02 3.7366671536e+02 1.7300000000e+02 0.0000e+00 -1.0000e+00
       -6  1    1    2    0  502 +1.7965374742e+02 -3.4446584586e+01 -1.4457840503e+02 2.9033420631e+02 1.7300000000e+02 0.0000e+00 -1.0000e+00
       21  1    1    2  504  501 -2.2634990220e+01 +2.8878714012e+01 -2.3888626210e+02 2.4168775129e+02 0.0000000000e+00 0.0000e+00 -1.0000e+00
       21  1    1    2  505  503 -4.0611678883e+01 -4.9511741985e+01 -4.0569466508e+02 4.1071752133e+02 0.0000000000e+00 0.0000e+00 -1.0000e+00
<mgrwt>
<rscale>  4 0.23610772E+03</rscale>
<asrwt>0</asrwt>
<pdfrwt beam="1">  1       21 0.17084762E-01 0.23610772E+03</pdfrwt>
<pdfrwt beam="2">  1       21 0.18543927E+00 0.23610772E+03</pdfrwt>
<totfact> 0.49854642E+03</totfact>
</mgrwt>
</event>
<event>
 6      1 +2.5196620e+02 3.10741400e+02 7.54677100e-03 1.16558800e-01
       21 -1    0    0  503  502 +0.0000000000e+00 +0.0000000000e+00 +1.0855364628e+03 1.0855364628e+03 0.0000000000e+00 0.0000e+00 -1.0000e+00
       21 -1    0    0  504  503 -0.0000000000e+00 -0.0000000000e+00 -4.8567361734e+02 4.8567361734e+02 0.0000000000e+00 0.0000e+00 -1.0000e+00
        6  1    1    2  501    0 -2.4289611730e+01 -7.7796501454e+01 -3.1747032976e+02 3.7061933457e+02 1.7300000000e+02 0.0000e+00 -1.0000e+00
       -6  1    1    2    0  505 +2.5739317981e+02 -5.9635383148e+01 +8.4034586453e+02 8.9772924648e+02 1.7300000000e+02 0.0000e+00 -1.0000e+00
       21  1    1    2  504  501 -2.3192810444e+02 +1.1712620291e+02 +4.3153483959e+01 2.6338454058e+02 0.0000000000e+00 0.0000e+00 -1.0000e+00
       21  1    1    2  505  502 -1.1754636457e+00 +2.0305681688e+01 +3.3833826728e+01 3.9476958529e+01 0.0000000000e+00 0.0000e+00 1.0000e+00
<mgrwt>
<rscale>  4 0.27515373E+03</rscale>
<asrwt>0</asrwt>
<pdfrwt beam="1">  1       21 0.16700561E+00 0.31074136E+03</pdfrwt>
<pdfrwt beam="2">  1       21 0.74719019E-01 0.31074136E+03</pdfrwt>
<totfact> 0.32094552E+02</totfact>
</mgrwt>
</event>
<event>
 6      1 +2.5196620e+02 2.28520300e+02 7.54677100e-03 1.14954000e-01
       21 -1    0    0  505  502 +0.0000000000e+00 +0.0000000000e+00 +2.1971750628e+03 2.1971750628e+03 0.0000000000e+00 0.0000e+00 1.0000e+00
       21 -1    0    0  502  503 -0.0000000000e+00 -0.0000000000e+00 -2.8997707186e+02 2.8997707186e+02 0.0000000000e+00 0.0000e+00 -1.0000e+00
        6  1    1    2  501    0 +6.1905908048e+01 +1.6653677206e+02 -1.5226918023e+02 2.9100127345e+02 1.7300000000e+02 0.0000e+00 1.0000e+00
       -6  1    1    2    0  503 +3.0456876660e+01 -9.9148629721e+01 +8.7417583740e+01 2.1983836348e+02 1.7300000000e+02 0.0000e+00 -1.0000e+00
       21  1    1    2  504  501 -4.5587091642e+01 -2.8605523366e+00 +4.9097219386e+02 4.9309234513e+02 0.0000000000e+00 0.0000e+00 1.0000e+00
       21  1    1    2  505  504 -4.6775693066e+01 -6.4527590002e+01 +1.4810773936e+03 1.4832201526e+03 0.0000000000e+00 0.0000e+00 1.0000e+00
<mgrwt>
<rscale>  4 0.22852030E+03</rscale>
<asrwt>0</asrwt>
<pdfrwt beam="1">  1       21 0.33802692E+00 0.22852030E+03</pdfrwt>
<pdfrwt beam="2">  1       21 0.44611859E-01 0.22852030E+03</pdfrwt>
<totfact> 0.93646476E+01</totfact>
</mgrwt>
</event>
<event>
 6      1 +2.5196620e+02 1.96406200e+02 7.54677100e-03 1.09711200e-01
       21 -1    0    0  505  502 +0.0000000000e+00 +0.0000000000e+00 +1.6066622165e+02 1.6066622165e+02 0.0000000000e+00 0.0000e+00 1.0000e+00
       21 -1    0    0  504  503 -0.0000000000e+00 -0.0000000000e+00 -4.1842759543e+02 4.1842759543e+02 0.0000000000e+00 0.0000e+00 -1.0000e+00
        6  1    1    2  501    0 +8.9238226811e+01 +3.0384140607e+01 -7.4257470091e+00 1.9715678746e+02 1.7300000000e+02 0.0000e+00 -1.0000e+00
       -6  1    1    2    0  503 -8.9096301346e+01 -1.7794727201e+01 -1.6728099594e+02 2.5722895411e+02 1.7300000000e+02 0.0000e+00 -1.0000e+00
       21  1    1    2  504  502 +1.2213292788e+01 +3.5734617537e+01 -5.7160349695e+01 6.8508634408e+01 0.0000000000e+00 0.0000e+00 1.0000e+00
       21  1    1    2  505  501 -1.2355218253e+01 -4.8324030943e+01 -2.5894281135e+01 5.6199441102e+01 0.0000000000e+00 0.0000e+00 1.0000e+00
<mgrwt>
<rscale>  4 0.19640619E+03</rscale>
<asrwt>0</asrwt>
<pdfrwt beam="1">  1       21 0.24717880E-01 0.19640619E+03</pdfrwt>
<pdfrwt beam="2">  1       21 0.64373476E-01 0.19640619E+03</pdfrwt>
<totfact> 0.34384237E+04</totfact>
</mgrwt>
</event>
<event>
 6      1 +2.5196620e+02 2.52824900e+02 7.54677100e-03 1.09079000e-01
       21 -1    0    0  501  502 +0.0000000000e+00 +0.0000000000e+00 +3.5360052649e+02 3.5360052649e+02 0.0000000000e+00 0.0000e+00 1.0000e+00
       21 -1    0    0  505  503 -0.0000000000e+00 -0.0000000000e+00 -7.2252544465e+02 7.2252544465e+02 0.0000000000e+00 0.0000e+00 1.0000e+00
        6  1    1    2  501    0 -2.0498715112e+02 -5.8963617731e+01 +1.0675953264e+02 2.9465749295e+02 1.7300000000e+02 0.0000e+00 1.0000e+00
       -6  1    1    2    0  504 +2.1335935563e+02 +5.1601132746e+01 -4.4821430926e+02 5.2821393257e+02 1.7300000000e+02 0.0000e+00 1.0000e+00
       21  1    1    2  504  503 -4.4240551424e+01 -3.4993372337e+01 -1.2718569923e+02 1.3913290260e+02 0.0000000000e+00 0.0000e+00 1.0000e+00
       21  1    1    2  505  502 +3.5868346907e+01 +4.2355857323e+01 +9.9715557687e+01 1.1412164301e+02 0.0000000000e+00 0.0000e+00 1.0000e+00
<mgrwt>
<rscale>  4 0.25282495E+03</rscale>
<asrwt>0</asrwt>
<pdfrwt beam="1">  1       21 0.54400081E-01 0.25282495E+03</pdfrwt>
<pdfrwt beam="2">  1       21 0.11115776E+00 0.25282495E+03</pdfrwt>
<totfact> 0.19347882E+03</totfact>
</mgrwt>
</event>
<event>
 6      1 +2.5196620e+02 1.93182900e+02 7.54677100e-03 1.06301000e-01
       21 -1    0    0  505  502 +0.0000000000e+00 +0.0000000000e+00 +8.4148068864e+02 8.4148068864e+02 0.0000000000e+00 0.0000e+00 1.0000e+00
       21 -1    0    0  504  503 -0.0000000000e+00 -0.0000000000e+00 -9.7745278080e+01 9.7745278080e+01 0.0000000000e+00 0.0000e+00 1.0000e+00
        6  1    1    2  501    0 +7.7940870897e+01 -7.7518001547e+01 +3.7434427756e+02 4.2678619713e+02 1.7300000000e+02 0.0000e+00 1.0000e+00
       -6  1    1    2    0  503 -3.1718796726e+01 +3.5922288142e+01 +1.0587043190e+02 2.0840835205e+02 1.7300000000e+02 0.0000e+00 1.0000e+00
       21  1    1    2  504  502 -5.3202930503e+01 +2.0667614738e+01 +2.1475358942e+01 6.0982728332e+01 0.0000000000e+00 0.0000e+00 -1.0000e+00
       21  1    1    2  505  501 +6.9808563326e+00 +2.0928098666e+01 +2.4204534215e+02 2.4304868921e+02 0.0000000000e+00 0.0000e+00 1.0000e+00
<mgrwt>
<rscale>  4 0.19318292E+03</rscale>
<asrwt>0</asrwt>
<pdfrwt beam="1">  1       21 0.12945856E+00 0.19318292E+03</pdfrwt>
<pdfrwt beam="2">  1       21 0.15037736E-01 0.19318292E+03</pdfrwt>
<totfact> 0.17052721E+04</totfact>
</mgrwt>
</event>
<event>
 6      1 +2.5196620e+02 1.85297800e+02 7.54677100e-03 1.15679100e-01
       21 -1    0    0  503  502 +0.0000000000e+00 +0.0000000000e+00 +2.3805787627e+02 2.3805787627e+02 0.0000000000e+00 0.0000e+00 1.0000e+00
       21 -1    0    0  505  503 -0.0000000000e+00 -0.0000000000e+00 -5.7222773425e+02 5.7222773425e+02 0.0000000000e+00 0.0000e+00 1.0000e+00
        6  1    1    2  501    0 -5.1964375526e+01 -1.1584762816e+01 -4.6413628724e+02 4.9818269358e+02 1.7300000000e+02 0.0000e+00 1.0000e+00
       -6  1    1    2    0  504 +4.0641276540e+01 +6.7557222957e+01 +1.5123126913e+02 2.4293124232e+02 1.7300000000e+02 0.0000e+00 1.0000e+00
       21  1    1    2  504  502 +8.0745737682e+00 -2.0744742698e+01 +7.5900541826e+00 2.3519183950e+01 0.0000000000e+00 0.0000e+00 1.0000e+00
       21  1    1    2  505  501 +3.2485252177e+00 -3.5227717442e+01 -2.8854894067e+01 4.5652490665e+01 0.0000000000e+00 0.0000e+00 1.0000e+00
<mgrwt>
<rscale>  4 0.18529784E+03</rscale>
<asrwt>0</asrwt>
<pdfrwt beam="1">  1       21 0.36624289E-01 0.18529784E+03</pdfrwt>
<pdfrwt beam="2">  1       21 0.88035035E-01 0.18529784E+03</pdfrwt>
<totfact> 0.79913519E+03</totfact>
</mgrwt>
</event>
<event>
 6      1 +2.5196620e+02 2.44091100e+02 7.54677100e-03 1.09711200e-01
       21 -1    0    0  501  502 +0.0000000000e+00 +0.0000000000e+00 +2.1500308958e+03 2.1500308958e+03 0.0000000000e+00 0.0000e+00 1.0000e+00
       21 -1    0    0  505  503 -0.0000000000e+00 -0.0000000000e+00 -2.1129739996e+03 2.1129739996e+03 0.0000000000e+00 0.0000e+00 -1.0000e+00
        6  1    1    2  501    0 +6.2274968761e+01 +3.7162483095e+01 -2.9082204409e+02 3.4607178910e+02 1.7300000000e+02 0.0000e+00 -1.0000e+00
       -6  1    1    2    0  503 -1.1361514012e+02 -1.8075836668e+02 -1.7548493133e+03 1.7762339653e+03 1.7300000000e+02 0.0000e+00 -1.0000e+00
       21  1    1    2  504  502 +7.6391581363e+01 -2.1406408671e+01 +1.8634290545e+03 1.8651170873e+03 0.0000000000e+00 0.0000e+00 1.0000e+00
       21  1    1    2  505  504 -2.5051409999e+01 +1.6500229225e+02 +2.1929919912e+02 2.7558205371e+02 0.0000000000e+00 0.0000e+00 1.0000e+00
<mgrwt>
<rscale>  4 0.24409107E+03</rscale>
<asrwt>0</asrwt>
<pdfrwt beam="1">  1       21 0.33077398E+00 0.24409107E+03</pdfrwt>
<pdfrwt beam="2">  1       21 0.32507292E+00 0.24409107E+03</pdfrwt>
<totfact> 0.48815092E-01</totfact>
</mgrwt>
</event>
<event>
 6      1 +2.5196620e+02 1.88624400e+02 7.54677100e-03 9.49153200e-02
       21 -1    0    0  505  502 +0.0000000000e+00 +0.0000000000e+00 +5.5026951890e+02 5.5026951890e+02 0.0000000000e+00 0.0000e+00 -1.0000e+00
       21 -1    0    0  501  503 -0.0000000000e+00 -0.0000000000e+00 -3.2286657575e+02 3.2286657575e+02 0.0000000000e+00 0.0000e+00 -1.0000e+00
        6  1    1    2  501    0 -5.4368368962e+01 +2.9110904980e+01 -1.6201624936e+02 2.4491147255e+02 1.7300000000e+02 0.0000e+00 -1.0000e+00
       -6  1    1    2    0  502 +6.6595023573e+01 -4.3808170254e+01 +1.5687368398e+02 2.4676386622e+02 1.7300000000e+02 0.0000e+00 -1.0000e+00
       21  1    1    2  504  503 -2.2699598483e+01 -1.1229107474e+01 -7.1644238295e+01 7.5988561685e+01 0.0000000000e+00 0.0000e+00 -1.0000e+00
       21  1    1    2  505  504 +1.0472943873e+01 +2.5926372748e+01 +3.0418974682e+02 3.0547219420e+02 0.0000000000e+00 0.0000e+00 -1.0000e+00
<mgrwt>
<rscale>  4 0.18862437E+03</rscale>
<asrwt>0</asrwt>
<pdfrwt beam="1">  1       21 0.84656849E-01 0.18862437E+03</pdfrwt>
<pdfrwt beam="2">  1       21 0.49671781E-01 0.18862437E+03</pdfrwt>
<totfact> 0.46870424E+03</totfact>
</mgrwt>
</event>
<event>
 6      1 +2.5196620e+02 4.62130700e+02 7.54677100e-03 1.16268000e-01
       21 -1    0    0  501  502 +0.0000000000e+00 +0.0000000000e+00 +2.2191931265e+03 2.2191931265e+03 0.0000000000e+00 0.0000e+00 -1.0000e+00
       21 -1    0    0  505  503 -0.0000000000e+00 -0.0000000000e+00 -2.6035576406e+02 2.6035576406e+02 0.0000000000e+00 0.0000e+00 1.0000e+00
        6  1    1    2  501    0 +9.2237741253e+01 -4.9290684548e+02 +6.6507329817e+02 8.5071525857e+02 1.7300000000e+02 0.0000e+00 1.0000e+00
       -6  1    1    2    0  503 +4.6487449488e+01 +1.2430524595e+02 +4.1275330551e+01 2.2191333904e+02 1.7300000000e+02 0.0000e+00 -1.0000e+00
       21  1    1    2  504  502 -2.2484526275e+01 +1.8831898385e+01 +8.8823817223e+02 8.8872225409e+02 0.0000000000e+00 0.0000e+00 1.0000e+00
       21  1    1    2  505  504 -1.1624066447e+02 +3.4976970114e+02 +3.6425056145e+02 5.1819803881e+02 0.0000000000e+00 0.0000e+00 -1.0000e+00
<mgrwt>
<rscale>  4 0.38327412E+03</rscale>
<asrwt>0</asrwt>
<pdfrwt beam="1">  1       21 0.34141431E+00 0.46213065E+03</pdfrwt>
<pdfrwt beam="2">  1       21 0.40054734E-01 0.46213065E+03</pdfrwt>
<totfact> 0.89148465E+01</totfact>
</mgrwt>
</event>
<event>
 6      1 +2.5196620e+02 1.97396100e+02 7.54677100e-03 9.49153200e-02
       21 -1    0    0  505  502 +0.0000000000e+00 +0.0000000000e+00 +5.1517343175e+02 5.1517343175e+02 0.0000000000e+00 0.0000e+00 -1.0000e+00
       21 -1    0    0  501  503 -0.0000000000e+00 -0.0000000000e+00 -2.9274731895e+02 2.9274731895e+02 0.0000000000e+00 0.0000e+00 -1.0000e+00
        6  1    1    2  501    0 +6.1056228806e+01 -1.5478207613e+01 -1.0063142199e+02 2.0981687510e+02 1.7300000000e+02 0.0000e+00 -1.0000e+00
       -6  1    1    2    0  502 -1.4688567805e+02 +5.9547611857e+00 +7.0375583478e+01 2.3768168703e+02 1.7300000000e+02 0.0000e+00 -1.0000e+00
       21  1    1    2  504  503 +2.2115694538e+01 -8.6733442541e+00 -4.7449165224e+01 5.3063679913e+01 0.0000000000e+00 0.0000e+00 1.0000e+00
       21  1    1    2  505  504 +6.3713754709e+01 +1.8196790682e+01 +3.0013111654e+02 3.0735850866e+02 0.0000000000e+00 0.0000e+00 -1.0000e+00
<mgrwt>
<rscale>  4 0.19739607E+03</rscale>
<asrwt>0</asrwt>
<pdfrwt beam="1">  1       21 0.79257451E-01 0.19739607E+03</pdfrwt>
<pdfrwt beam="2">  1       21 0.45038049E-01 0.19739607E+03</pdfrwt>
<totfact> 0.66210202E+03</totfact>
</mgrwt>
</event>
<event>
 6      1 +2.5196620e+02 2.50192000e+02 7.54677100e-03 1.06301000e-01
       21 -1    0    0  505  502 +0.0000000000e+00 +0.0000000000e+00 +3.5270840193e+02 3.5270840193e+02 0.0000000000e+00 0.0000e+00 1.0000e+00
       21 -1    0    0  501  503 -0.0000000000e+00 -0.0000000000e+00 -1.0579536551e+03 1.0579536551e+03 0.0000000000e+00 0.0000e+00 1.0000e+00
        6  1    1    2  501    0 +3.9090435882e+01 -1.2338229913e+02 -3.0206807462e+02 3.7138305780e+02 1.7300000000e+02 0.0000e+00 1.0000e+00
       -6  1    1    2    0  502 -9.9606678453e+01 +2.0245270819e+02 -6.4955728834e+02 7.0905730394e+02 1.7300000000e+02 0.0000e+00 1.0000e+00
       21  1    1    2  504  503 +6.3178885956e+01 -3.4022949418e+01 -7.6963070243e+00 7.2169008996e+01 0.0000000000e+00 0.0000e+00 1.0000e+00
       21  1    1    2  505  504 -2.6626433849e+00 -4.5047459637e+01 +2.5407641684e+02 2.5805268626e+02 0.0000000000e+00 0.0000e+00 1.0000e+00
<mgrwt>
<rscale>  4 0.25019197E+03</rscale>
<asrwt>0</asrwt>
<pdfrwt beam="1">  1       21 0.54262831E-01 0.25019197E+03</pdfrwt>
<pdfrwt beam="2">  1       21 0.16276210E+00 0.25019197E+03</pdfrwt>
<totfact> 0.72884117E+02</totfact>
</mgrwt>
</event>
<event>
 6      1 +2.5196620e+02 1.91151700e+02 7.54677100e-03 1.14954000e-01
       21 -1    0    0  501  502 +0.0000000000e+00 +0.0000000000e+00 +4.2158359499e+02 4.2158359499e+02 0.0000000000e+00 0.0000e+00 1.0000e+00
       21 -1    0    0  505  503 -0.0000000000e+00 -0.0000000000e+00 -4.7870484310e+02 4.7870484310e+02 0.0000000000e+00 0.0000e+00 1.0000e+00
        6  1    1    2  501    0 +8.2597588217e+01 -1.0355534043e+01 -3.5764671115e+02 4.0591842611e+02 1.7300000000e+02 0.0000e+00 1.0000e+00
       -6  1    1    2    0  503 -7.4755712289e+01 -9.4310361555e+00 +6.9150998444e+00 1.8882314363e+02 1.7300000000e+02 0.0000e+00 1.0000e+00
       21  1    1    2  504  502 -3.0466342959e+01 +5.0079980042e+00 +2.6262140448e+02 2.6443010454e+02 0.0000000000e+00 0.0000e+00 1.0000e+00
       21  1    1    2  505  504 +2.2624467031e+01 +1.4778572194e+01 +3.0988958707e+01 4.1116763810e+01 0.0000000000e+00 0.0000e+00 -1.0000e+00
<mgrwt>
<rscale>  4 0.19115173E+03</rscale>
<asrwt>0</asrwt>
<pdfrwt beam="1">  1       21 0.64859015E-01 0.19115173E+03</pdfrwt>
<pdfrwt beam="2">  1       21 0.73646898E-01 0.19115173E+03</pdfrwt>
<totfact> 0.36304759E+03</totfact>
</mgrwt>
</event>
<event>
 6      1 +2.5196620e+02 3.12698800e+02 7.54677100e-03 1.13287100e-01
       21 -1    0    0  504  502 +0.0000000000e+00 +0.0000000000e+00 +9.7021657668e+02 9.7021657668e+02 0.0000000000e+00 0.0000e+00 1.0000e+00
       21 -1    0    0  505  503 -0.0000000000e+00 -0.0000000000e+00 -1.7298795313e+02 1.7298795313e+02 0.0000000000e+00 0.0000e+00 1.0000e+00
        6  1    1    2  501    0 -2.3880443312e+02 -1.2299274549e+02 +5.7915506401e+02 6.6144112428e+02 1.7300000000e+02 0.0000e+00 1.0000e+00
       -6  1    1    2    0  503 +2.1840239483e+02 +1.5655719283e+02 +9.0037290784e+01 3.3203233942e+02 1.7300000000e+02 0.0000e+00 1.0000e+00
       21  1    1    2  504  501 -1.8037450903e+00 -2.6202749041e+01 +8.0286378460e+00 2.7464460296e+01 0.0000000000e+00 0.0000e+00 -1.0000e+00
       21  1    1    2  505  502 +2.2205783382e+01 -7.3616982970e+00 +1.2000763091e+02 1.2226660580e+02 0.0000000000e+00 0.0000e+00 -1.0000e+00
<mgrwt>
<rscale>  4 0.31269880E+03</rscale>
<asrwt>0</asrwt>
<pdfrwt beam="1">  1       21 0.14926409E+00 0.31269880E+03</pdfrwt>
<pdfrwt beam="2">  1       21 0.26613532E-01 0.31269880E+03</pdfrwt>
<totfact> 0.37439690E+03</totfact>
</mgrwt>
</event>
<event>
 6      1 +2.5196620e+02 1.79015900e+02 7.54677100e-03 1.14954000e-01
       21 -1    0    0  501  502 +0.0000000000e+00 +0.0000000000e+00 +1.0219988131e+02 1.0219988131e+02 0.0000000000e+00 0.0000e+00 -1.0000e+00
       21 -1    0    0  504  503 -0.0000000000e+00 -0.0000000000e+00 -1.9322299250e+03 1.9322299250e+03 0.0000000000e+00 0.0000e+00 1.0000e+00
        6  1    1    2  501    0 +4.9882855204e+01 -8.6426936523e+01 -5.2882327987e+02 5.6527955556e+02 1.7300000000e+02 0.0000e+00 1.0000e+00
       -6  1    1    2    0  503 +8.0526008914e+01 -1.0580915557e+01 -1.2079504248e+03 1.2229757245e+03 1.7300000000e+02 0.0000e+00 -1.0000e+00
       21  1    1    2  504  505 -1.5405569899e+02 +1.1292694566e+02 -5.5589035404e+01 1.9893665902e+02 0.0000000000e+00 0.0000e+00 -1.0000e+00
       21  1    1    2  505  502 +2.3646834868e+01 -1.5919093582e+01 -3.7667303598e+01 4.7237867226e+01 0.0000000000e+00 0.0000e+00 1.0000e+00
<mgrwt>
<rscale>  4 0.17901592E+03</rscale>
<asrwt>0</asrwt>
<pdfrwt beam="1">  1       21 0.15723059E-01 0.17901592E+03</pdfrwt>
<pdfrwt beam="2">  1       21 0.29726613E+00 0.17901592E+03</pdfrwt>
<totfact> 0.12981897E+03</totfact>
</mgrwt>
</event>
<event>
 6      1 +2.5196620e+02 2.14020500e+02 7.54677100e-03 9.49153200e-02
       21 -1    0    0  505  502 +0.0000000000e+00 +0.0000000000e+00 +2.0199603566e+02 2.0199603566e+02 0.0000000000e+00 0.0000e+00 -1.0000e+00
       21 -1    0    0  501  503 -0.0000000000e+00 -0.0000000000e+00 -4.8267795026e+02 4.8267795026e+02 0.0000000000e+00 0.0000e+00 -1.0000e+00
        6  1    1    2  501    0 +7.9805402964e+01 +5.5311159226e+00 +5.3530400313e+01 1.9797474421e+02 1.7300000000e+02 0.0000e+00 -1.0000e+00
       -6  1    1    2    0  502 -1.2546061842e+02 +7.1628987737e+01 -2.9676077192e+02 3.7264867423e+02 1.7300000000e+02 0.0000e+00 -1.0000e+00
       21  1    1    2  504  503 -1.1854742675e+01 -2.5924641257e+01 -2.0694779432e+01 3.5226351556e+01 0.0000000000e+00 0.0000e+00 1.0000e+00
       21  1    1    2  505  504 +5.7509958130e+01 -5.1235462403e+01 -1.6756763563e+01 7.8824215929e+01 0.0000000000e+00 0.0000e+00 1.0000e+00
<mgrwt>
<rscale>  4 0.21402049E+03</rscale>
<asrwt>0</asrwt>
<pdfrwt beam="1">  1       21 0.31076313E-01 0.21402049E+03</pdfrwt>
<pdfrwt beam="2">  1       21 0.74258145E-01 0.21402049E+03</pdfrwt>
<totfact> 0.15956563E+04</totfact>
</mgrwt>
</event>
<event>
 6      1 +2.5196620e+02 2.97328800e+02 7.54677100e-03 1.16321900e-01
       21 -1    0    0  504  502 +0.0000000000e+00 +0.0000000000e+00 +2.2557575214e+02 2.2557575214e+02 0.0000000000e+00 0.0000e+00 1.0000e+00
       21 -1    0    0  501  503 -0.0000000000e+00 -0.0000000000e+00 -7.7142956571e+02 7.7142956571e+02 0.0000000000e+00 0.0000e+00 -1.0000e+00
        6  1    1    2  501    0 -1.4285001688e+02 -2.7619402546e+02 -2.8054115134e+02 4.5312427061e+02 1.7300000000e+02 0.0000e+00 -1.0000e+00
       -6  1    1    2    0  502 +1.1209829342e+02 +1.8233380943e+02 -2.1099590861e+01 2.7601782222e+02 1.7300000000e+02 0.0000e+00 1.0000e+00
       21  1    1    2  504  505 +7.9934327026e+00 +8.3161434844e+01 -2.0387055850e+02 2.2032458745e+02 0.0000000000e+00 0.0000e+00 -1.0000e+00
       21  1    1    2  505  503 +2.2758290761e+01 +1.0698781182e+01 -4.0342512867e+01 4.7538637565e+01 0.0000000000e+00 0.0000e+00 -1.0000e+00
<mgrwt>
<rscale>  4 0.29732881E+03</rscale>
<asrwt>0</asrwt>
<pdfrwt beam="1">  1       21 0.34703962E-01 0.29732881E+03</pdfrwt>
<pdfrwt beam="2">  1       21 0.11868147E+00 0.29732881E+03</pdfrwt>
<totfact> 0.40457966E+03</totfact>
</mgrwt>
</event>
<event>
 6      1 +2.5196620e+02 2.19698000e+02 7.54677100e-03 9.49153200e-02
       21 -1    0    0  505  502 +0.0000000000e+00 +0.0000000000e+00 +5.1840860370e+02 5.1840860370e+02 0.0000000000e+00 0.0000e+00 -1.0000e+00
       21 -1    0    0  501  503 -0.0000000000e+00 -0.0000000000e+00 -1.3142000665e+03 1.3142000665e+03 0.0000000000e+00 0.0000e+00 -1.0000e+00
        6  1    1    2  501    0 +1.4648459509e+02 +1.1311210074e+02 -1.4656075290e+02 2.9267924119e+02 1.7300000000e+02 0.0000e+00 -1.0000e+00
       -6  1    1    2    0  502 -2.1188692668e+01 -9.0598714699e+01 -7.9379619698e+00 1.9659374111e+02 1.7300000000e+02 0.0000e+00 1.0000e+00
       21  1    1    2  504  503 +4.7432092593e+01 -7.5120307702e+01 -9.6692259873e+02 9.7099545620e+02 0.0000000000e+00 0.0000e+00 -1.0000e+00
       21  1    1    2  505  504 -1.7272799501e+02 +5.2606921657e+01 +3.2562985076e+02 3.7234023174e+02 0.0000000000e+00 0.0000e+00 -1.0000e+00
<mgrwt>
<rscale>  4 0.21969799E+03</rscale>
<asrwt>0</asrwt>
<pdfrwt beam="1">  1       21 0.79755171E-01 0.21969799E+03</pdfrwt>
<pdfrwt beam="2">  1       21 0.20218462E+00 0.21969799E+03</pdfrwt>
<totfact> 0.17387177E+02</totfact>
</mgrwt>
</event>
<event>
 6      1 +2.5196620e+02 2.97893100e+02 7.54677100e-03 1.16321900e-01
       21 -1    0    0  504  502 +0.0000000000e+00 +0.0000000000e+00 +7.9843711524e+02 7.9843711524e+02 0.0000000000e+00 0.0000e+00 -1.0000e+00
       21 -1    0    0  501  503 -0.0000000000e+00 -0.0000000000e+00 -2.7243362691e+02 2.7243362691e+02 0.0000000000e+00 0.0000e+00 -1.0000e+00
        6  1    1    2  501    0 +9.9531103318e+01 -1.8006116293e+02 +8.6031031567e+01 2.8223890823e+02 1.7300000000e+02 0.0000e+00 -1.0000e+00
       -6  1    1    2    0  502 +9.3414327856e+01 -6.0908895788e+01 +4.0245809541e+02 4.5203722058e+02 1.7300000000e+02 0.0000e+00 1.0000e+00
       21  1    1    2  504  505 -1.6448107301e+02 +2.3149859837e+02 +6.9891730115e+01 2.9245594260e+02 0.0000000000e+00 0.0000e+00 -1.0000e+00
       21  1    1    2  505  503 -2.8464358161e+01 +9.4714603580e+00 -3.2377368756e+01 4.4138670737e+01 0.0000000000e+00 0.0000e+00 -1.0000e+00
<mgrwt>
<rscale>  4 0.27105003E+03</rscale>
<asrwt>0</asrwt>
<pdfrwt beam="1">  1       21 0.12283648E+00 0.29789309E+03</pdfrwt>
<pdfrwt beam="2">  1       21 0.41912866E-01 0.29789309E+03</pdfrwt>
<totfact> 0.25291135E+03</totfact>
</mgrwt>
</event>
<event>
 6      1 +2.5196620e+02 2.21085500e+02 7.54677100e-03 1.09711200e-01
       21 -1    0    0  504  502 +0.0000000000e+00 +0.0000000000e+00 +3.4377494933e+02 3.4377494933e+02 0.0000000000e+00 0.0000e+00 1.0000e+00
       21 -1    0    0  502  503 -0.0000000000e+00 -0.0000000000e+00 -4.2794856027e+02 4.2794856027e+02 0.0000000000e+00 0.0000e+00 1.0000e+00
        6  1    1    2  501    0 +2.0784639757e+01 -1.3050269133e+02 -1.9832151791e+02 2.9448833281e+02 1.7300000000e+02 0.0000e+00 1.0000e+00
       -6  1    1    2    0  503 -1.3674101900e+01 +1.4683186739e+02 -7.0010281480e+01 2.3785923959e+02 1.7300000000e+02 0.0000e+00 -1.0000e+00
       21  1    1    2  504  505 -5.2274659722e+01 -3.5676641265e-01 +1.8419619913e+02 1.9147064294e+02 0.0000000000e+00 0.0000e+00 -1.0000e+00
       21  1    1    2  505  501 +4.5164121865e+01 -1.5972409649e+01 -3.8010679830e-02 4.7905294265e+01 0.0000000000e+00 0.0000e+00 -1.0000e+00
<mgrwt>
<rscale>  4 0.22108549E+03</rscale>
<asrwt>0</asrwt>
<pdfrwt beam="1">  1       21 0.52888454E-01 0.22108549E+03</pdfrwt>
<pdfrwt beam="2">  1       21 0.65838240E-01 0.22108549E+03</pdfrwt>
<totfact> 0.70369801E+03</totfact>
</mgrwt>
</event>
<event>
 6      1 +2.5196620e+02 2.56758600e+02 7.54677100e-03 9.49153200e-02
       21 -1    0    0  505  502 +0.0000000000e+00 +0.0000000000e+00 +5.0542224906e+02 5.0542224906e+02 0.0000000000e+00 0.0000e+00 1.0000e+00
       21 -1    0    0  504  503 -0.0000000000e+00 -0.0000000000e+00 -2.4171210010e+02 2.4171210010e+02 0.0000000000e+00 0.0000e+00 -1.0000e+00
        6  1    1    2  501    0 -9.1556394078e+01 -1.9375101658e+02 +2.3481871952e+02 3.6192659582e+02 1.7300000000e+02 0.0000e+00 -1.0000e+00
       -6  1    1    2    0  502 +5.8304614508e+01 +1.5029129974e+02 +1.1339387776e+02 2.6224811603e+02 1.7300000000e+02 0.0000e+00 -1.0000e+00
       21  1    1    2  504  501 +1.1057749906e+01 +4.1092617320e+01 -9.0364275493e+01 9.9882827937e+01 0.0000000000e+00 0.0000e+00 -1.0000e+00
       21  1    1    2  505  503 +2.2194029664e+01 +2.3670995271e+00 +5.8618271681e+00 2.3076809369e+01 0.0000000000e+00 0.0000e+00 -1.0000e+00
<mgrwt>
<rscale>  4 0.25675859E+03</rscale>
<asrwt>0</asrwt>
<pdfrwt beam="1">  1       21 0.77757269E-01 0.25675859E+03</pdfrwt>
<pdfrwt beam="2">  1       21 0.37186477E-01 0.25675859E+03</pdfrwt>
<totfact> 0.98290127E+03</totfact>
</mgrwt>
</event>
<event>
 6      1 +2.5196620e+02 2.05328200e+02 7.54677100e-03 1.06301000e-01
       21 -1    0    0  505  502 +0.0000000000e+00 +0.0000000000e+00 +1.1679862692e+02 1.1679862692e+02 0.0000000000e+00 0.0000e+00 -1.0000e+00
       21 -1    0    0  504  503 -0.0000000000e+00 -0.0000000000e+00 -1.3187811443e+03 1.3187811443e+03 0.0000000000e+00 0.0000e+00 -1.0000e+00
        6  1    1    2  501    0 -1.5129188676e+00 +8.4675686838e+01 -5.7031503760e+02 6.0196387182e+02 1.7300000000e+02 0.0000e+00 -1.0000e+00
       -6  1    1    2    0  502 +4.3052013193e+01 -1.0832713545e+02 -1.8840947268e+01 2.0945697746e+02 1.7300000000e+02 0.0000e+00 -1.0000e+00
       21  1    1    2  504  501 +5.4325986659e+00 +2.8756778548e+01 -5.1173162299e+02 5.1256777055e+02 0.0000000000e+00 0.0000e+00 -1.0000e+00
       21  1    1    2  505  503 -4.6971692991e+01 -5.1053299407e+00 -1.0109490955e+02 1.1159115141e+02 0.0000000000e+00 0.0000e+00 -1.0000e+00
<mgrwt>
<rscale>  4 0.20532824E+03</rscale>
<asrwt>0</asrwt>
<pdfrwt beam="1">  1       21 0.17969019E-01 0.20532824E+03</pdfrwt>
<pdfrwt beam="2">  1       21 0.20288941E+00 0.20532824E+03</pdfrwt>
<totfact> 0.35804617E+03</totfact>
</mgrwt>
</event>
<event>
 6      1 +2.5196620e+02 1.77293500e+02 7.54677100e-03 1.06301000e-01
       21 -1    0    0  505  502 +0.0000000000e+00 +0.0000000000e+00 +2.5179836986e+02 2.5179836986e+02 0.0000000000e+00 0.0000e+00 1.0000e+00
       21 -1    0    0  501  503 -0.0000000000e+00 -0.0000000000e+00 -9.1032185208e+02 9.1032185208e+02 0.0000000000e+00 0.0000e+00 1.0000e+00
        6  1    1    2  501    0 -2.6857321174e+01 -9.1047921747e+01 -6.7857006482e+02 7.0668053081e+02 1.7300000000e+02 0.0000e+00 1.0000e+00
       -6  1    1    2    0  502 -1.8083972237e+01 -9.0608819898e+00 -6.4686961542e+01 1.8580240210e+02 1.7300000000e+02 0.0000e+00 1.0000e+00
       21  1    1    2  504  503 +1.5792849393e+01 +4.8535266051e+01 -7.9820848964e+01 9.4744150595e+01 0.0000000000e+00 0.0000e+00 1.0000e+00
       21  1    1    2  505  504 +2.9148444018e+01 +5.1573537686e+01 +1.6455439311e+02 1.7489313843e+02 0.0000000000e+00 0.0000e+00 1.0000e+00
<mgrwt>
<rscale>  4 0.17729349E+03</rscale>
<asrwt>0</asrwt>
<pdfrwt beam="1">  1       21 0.38738212E-01 0.17729349E+03</pdfrwt>
<pdfrwt beam="2">  1       21 0.14004951E+00 0.17729349E+03</pdfrwt>
<totfact> 0.23310916E+03</totfact>
</mgrwt>
</event>
<event>
 6      1 +2.5196620e+02 1.90871600e+02 7.54677100e-03 9.49153200e-02
       21 -1    0    0  504  502 +0.0000000000e+00 +0.0000000000e+00 +1.2603035760e+02 1.2603035760e+02 0.0000000000e+00 0.0000e+00 1.0000e+00
       21 -1    0    0  501  503 -0.0000000000e+00 -0.0000000000e+00 -5.6510364278e+02 5.6510364278e+02 0.0000000000e+00 0.0000e+00 1.0000e+00
        6  1    1    2  501    0 -4.4319674723e+01 +2.5694996262e+01 -1.2426847815e+02 2.1908017040e+02 1.7300000000e+02 0.0000e+00 1.0000e+00
       -6  1    1    2    0  505 +1.0629720232e+02 -4.0444598514e+01 -1.0071203834e+02 2.3023200351e+02 1.7300000000e+02 0.0000e+00 1.0000e+00
       21  1    1    2  504  503 -3.6459245498e+01 -1.5327767944e+01 -1.9316003877e+02 1.9716748624e+02 0.0000000000e+00 0.0000e+00 -1.0000e+00
       21  1    1    2  505  502 -2.5518282103e+01 +3.0077370197e+01 -2.0932729916e+01 4.4654340228e+01 0.0000000000e+00 0.0000e+00 -1.0000e+00
<mgrwt>
<rscale>  4 0.19087160E+03</rscale>
<asrwt>0</asrwt>
<pdfrwt beam="1">  1       21 0.19389285E-01 0.19087160E+03</pdfrwt>
<pdfrwt beam="2">  1       21 0.86939024E-01 0.19087160E+03</pdfrwt>
<totfact> 0.27858098E+04</totfact>
</mgrwt>
</event>
<event>
 6      1 +2.5196620e+02 3.52338500e+02 7.54677100e-03 1.11396600e-01
       21 -1    0    0  501  502 +0.0000000000e+00 +0.0000000000e+00 +1.6346077422e+03 1.6346077422e+03 0.0000000000e+00 0.0000e+00 -1.0000e+00
       21 -1    0    0  505  503 -0.0000000000e+00 -0.0000000000e+00 -3.4969628221e+02 3.4969628221e+02 0.0000000000e+00 0.0000e+00 1.0000e+00
        6  1    1    2  501    0 +1.2014017883e+02 +1.7582085659e+01 +1.0517057993e+02 2.3607762110e+02 1.7300000000e+02 0.0000e+00 1.0000e+00
       -6  1    1    2    0  503 +1.3639022362e+02 +1.6326260615e+02 -1.9535923637e+02 3.3667670383e+02 1.7300000000e+02 0.0000e+00 1.0000e+00
       21  1    1    2  504  502 -4.0781603766e+01 -5.6297608230e+01 +3.1238482563e+02 3.2002631014e+02 0.0000000000e+00 0.0000e+00 1.0000e+00
       21  1    1    2  505  504 -2.1574879868e+02 -1.2454708357e+02 +1.0627152908e+03 1.0915233893e+03 0.0000000000e+00 0.0000e+00 -1.0000e+00
<mgrwt>
<rscale>  4 0.31008033E+03</rscale>
<asrwt>0</asrwt>
<pdfrwt beam="1">  1       21 0.25147811E+00 0.35233847E+03</pdfrwt>
<pdfrwt beam="2">  1       21 0.53799429E-01 0.35233847E+03</pdfrwt>
<totfact> 0.18029361E+02</totfact>
</mgrwt>
</event>
<event>
 6      1 +2.5196620e+02 2.22091600e+02 7.54677100e-03 1.16321900e-01
       21 -1    0    0  504  502 +0.0000000000e+00 +0.0000000000e+00 +4.8249326283e+02 4.8249326283e+02 0.0000000000e+00 0.0000e+00 1.0000e+00
       21 -1    0    0  501  503 -0.0000000000e+00 -0.0000000000e+00 -1.5118610278e+02 1.5118610278e+02 0.0000000000e+00 0.0000e+00 1.0000e+00
        6  1    1    2  501    0 -1.3860067338e+02 -2.5973615858e+01 +1.3939227320e+02 2.6314251121e+02 1.7300000000e+02 0.0000e+00 1.0000e+00
       -6  1    1    2    0  502 +1.3746884943e+02 +1.2666601500e+01 +1.7739927511e+02 2.8365054234e+02 1.7300000000e+02 0.0000e+00 1.0000e+00
       21  1    1    2  504  505 +2.3033027686e+01 -2.8635443720e+01 +1.4671614617e+01 3.9569752045e+01 0.0000000000e+00 0.0000e+00 1.0000e+00
       21  1    1    2  505  503 -2.1901203737e+01 +4.1942458078e+01 -1.5600288127e-01 4.7316560015e+01 0.0000000000e+00 0.0000e+00 1.0000e+00
<mgrwt>
<rscale>  4 0.22209159E+03</rscale>
<asrwt>0</asrwt>
<pdfrwt beam="1">  1       21 0.74229732E-01 0.22209159E+03</pdfrwt>
<pdfrwt beam="2">  1       21 0.23259401E-01 0.22209159E+03</pdfrwt>
<totfact> 0.27817150E+04</totfact>
</mgrwt>
</event>
<event>
 6      1 +2.5196620e+02 2.03695800e+02 7.54677100e-03 9.49153200e-02
       21 -1    0    0  505  502 +0.0000000000e+00 +0.0000000000e+00 +3.8038907184e+02 3.8038907184e+02 0.0000000000e+00 0.0000e+00 -1.0000e+00
       21 -1    0    0  501  503 -0.0000000000e+00 -0.0000000000e+00 -1.9556691076e+02 1.9556691076e+02 0.0000000000e+00 0.0000e+00 -1.0000e+00
        6  1    1    2  501    0 -1.3038613835e+02 -2.0256166046e+01 +6.5954397787e+01 2.2735399694e+02 1.7300000000e+02 0.0000e+00 -1.0000e+00
       -6  1    1    2    0  502 +9.2950413944e+01 -1.4183795972e+01 +3.6854617339e+01 2.0032029937e+02 1.7300000000e+02 0.0000e+00 -1.0000e+00
       21  1    1    2  504  503 -2.0728536202e+01 +2.2838062483e+01 -1.5215255249e+01 3.4391180604e+01 0.0000000000e+00 0.0000e+00 1.0000e+00
       21  1    1    2  505  504 +5.8164260612e+01 +1.1601899535e+01 +9.7228401203e+01 1.1389050569e+02 0.0000000000e+00 0.0000e+00 -1.0000e+00
<mgrwt>
<rscale>  4 0.20369582E+03</rscale>
<asrwt>0</asrwt>
<pdfrwt beam="1">  1       21 0.58521396E-01 0.20369582E+03</pdfrwt>
<pdfrwt beam="2">  1       21 0.30087217E-01 0.20369582E+03</pdfrwt>
<totfact> 0.28786855E+04</totfact>
</mgrwt>
</event>
<event>
 6      1 +2.5196620e+02 2.53382700e+02 7.54677100e-03 1.13287100e-01
       21 -1    0    0  504  502 +0.0000000000e+00 +0.0000000000e+00 +3.1271120249e+02 3.1271120249e+02 0.0000000000e+00 0.0000e+00 -1.0000e+00
       21 -1    0    0  505  503 -0.0000000000e+00 -0.0000000000e+00 -1.3968870741e+03 1.3968870741e+03 0.0000000000e+00 0.0000e+00 -1.0000e+00
        6  1    1    2  501    0 -3.9948680683e+01 +1.1966014957e+02 +6.8333015250e+01 2.2475063839e+02 1.7300000000e+02 0.0000e+00 -1.0000e+00
       -6  1    1    2    0  503 +1.7022907321e+01 -1.8975699565e+02 -1.2917683568e+03 1.3171529844e+03 1.7300000000e+02 0.0000e+00 -1.0000e+00
       21  1    1    2  504  501 -1.5165403808e+01 +1.3303023110e+01 +1.2690354915e+01 2.3832855565e+01 0.0000000000e+00 0.0000e+00 1.0000e+00
       21  1    1    2  505  502 +3.8091177169e+01 +5.6793822971e+01 +1.2656911502e+02 1.4386179821e+02 0.0000000000e+00 0.0000e+00 -1.0000e+00
<mgrwt>
<rscale>  4 0.25338272E+03</rscale>
<asrwt>0</asrwt>
<pdfrwt beam="1">  1       21 0.48109415E-01 0.25338272E+03</pdfrwt>
<pdfrwt beam="2">  1       21 0.21490571E+00 0.25338272E+03</pdfrwt>
<totfact> 0.41729470E+02</totfact>
</mgrwt>
</event>
<event>
 6      1 +2.5196620e+02 2.03105100e+02 7.54677100e-03 1.14954000e-01
       21 -1    0    0  504  502 +0.0000000000e+00 +0.0000000000e+00 +2.3945625177e+02 2.3945625177e+02 0.0000000000e+00 0.0000e+00 -1.0000e+00
       21 -1    0    0  502  503 -0.0000000000e+00 -0.0000000000e+00 -1.1735936385e+03 1.1735936385e+03 0.0000000000e+00 0.0000e+00 -1.0000e+00
        6  1    1    2  501    0 -5.6846578624e+01 -1.2372020822e+02 -6.3579435882e+02 6.7283110074e+02 1.7300000000e+02 0.0000e+00 -1.0000e+00
       -6  1    1    2    0  503 +4.1098419389e+01 +6.5198402220e+01 -4.6542849015e+02 5.0248640894e+02 1.7300000000e+02 0.0000e+00 -1.0000e+00
       21  1    1    2  504  505 -4.7763494149e+01 +3.6502261077e+01 +1.5905241305e+02 1.7003363354e+02 0.0000000000e+00 0.0000e+00 -1.0000e+00
       21  1    1    2  505  501 +6.3511653383e+01 +2.2019544926e+01 +8.0330491836e+00 6.7698747059e+01 0.0000000000e+00 0.0000e+00 -1.0000e+00
<mgrwt>
<rscale>  4 0.20310506E+03</rscale>
<asrwt>0</asrwt>
<pdfrwt beam="1">  1       21 0.36839423E-01 0.20310506E+03</pdfrwt>
<pdfrwt beam="2">  1       21 0.18055287E+00 0.20310506E+03</pdfrwt>
<totfact> 0.12679519E+03</totfact>
</mgrwt>
</event>
<event>
 6      1 +2.5196620e+02 2.37671300e+02 7.54677100e-03 1.02776600e-01
       21 -1    0    0  503  502 +0.0000000000e+00 +0.0000000000e+00 +5.8040235716e+01 5.8040235716e+01 0.0000000000e+00 0.0000e+00 1.0000e+00
       21 -1    0    0  505  503 -0.0000000000e+00 -0.0000000000e+00 -2.7042426233e+03 2.7042426233e+03 0.0000000000e+00 0.0000e+00 1.0000e+00
        6  1    1    2  501    0 +1.3688668465e+02 -1.1897282676e+02 -7.0471368650e+02 7.4795914186e+02 1.7300000000e+02 0.0000e+00 1.0000e+00
       -6  1    1    2    0  502 -1.5909603896e+02 +2.8600778970e+01 -3.6972154977e+02 4.3903596497e+02 1.7300000000e+02 0.0000e+00 1.0000e+00
       21  1    1    2  504  501 +4.6163327585e+00 +7.0718024934e+01 -8.1959392680e+02 8.2265214668e+02 0.0000000000e+00 0.0000e+00 1.0000e+00
       21  1    1    2  505  504 +1.7593021559e+01 +1.9654022853e+01 -7.5217322451e+02 7.5263560552e+02 0.0000000000e+00 0.0000e+00 -1.0000e+00
<mgrwt>
<rscale>  4 0.23767128E+03</rscale>
<asrwt>0</asrwt>
<pdfrwt beam="1">  1       21 0.89292664E-02 0.23767128E+03</pdfrwt>
<pdfrwt beam="2">  1       21 0.41603736E+00 0.23767128E+03</pdfrwt>
<totfact> 0.64069623E+02</totfact>
</mgrwt>
</event>
<event>
 6      1 +2.5196620e+02 1.88234900e+02 7.54677100e-03 1.16726300e-01
       21 -1    0    0  504  502 +0.0000000000e+00 +0.0000000000e+00 +2.8805128040e+02 2.8805128040e+02 0.0000000000e+00 0.0000e+00 1.0000e+00
       21 -1    0    0  505  503 -0.0000000000e+00 -0.0000000000e+00 -4.6203520168e+02 4.6203520168e+02 0.0000000000e+00 0.0000e+00 -1.0000e+00
        6  1    1    2  501    0 +3.9978711119e+01 +5.7013138034e+01 +1.5976953383e+02 2.4556892962e+02 1.7300000000e+02 0.0000e+00 1.0000e+00
       -6  1    1    2    0  503 -6.5282848416e+01 -6.5358378785e+01 -1.0239203435e+02 2.2123900351e+02 1.7300000000e+02 0.0000e+00 -1.0000e+00
       21  1    1    2  504  501 +7.6598195240e+01 -3.2565717409e+01 -6.8839018710e+01 1.0801212877e+02 0.0000000000e+00 0.0000e+00 -1.0000e+00
       21  1    1    2  505  502 -5.1294057943e+01 +4.0910958161e+01 -1.6252240205e+02 1.7526642019e+02 0.0000000000e+00 0.0000e+00 -1.0000e+00
<mgrwt>
<rscale>  4 0.18823488E+03</rscale>
<asrwt>0</asrwt>
<pdfrwt beam="1">  1       21 0.44315582E-01 0.18823488E+03</pdfrwt>
<pdfrwt beam="2">  1       21 0.71082338E-01 0.18823488E+03</pdfrwt>
<totfact> 0.87863727E+03</totfact>
</mgrwt>
</event>
<event>
 6      1 +2.5196620e+02 1.93036800e+02 7.54677100e-03 1.09711200e-01
       21 -1    0    0  504  502 +0.0000000000e+00 +0.0000000000e+00 +8.7388159965e+02 8.7388159965e+02 0.0000000000e+00 0.0000e+00 1.0000e+00
       21 -1    0    0  502  503 -0.0000000000e+00 -0.0000000000e+00 -8.5739751859e+01 8.5739751859e+01 0.0000000000e+00 0.0000e+00 1.0000e+00
        6  1    1    2  501    0 -4.6295323581e+01 +6.2949589560e+01 +8.5897641245e+01 2.0835861533e+02 1.7300000000e+02 0.0000e+00 1.0000e+00
       -6  1    1    2    0  503 +7.0009863971e+01 -9.2420071659e+01 +5.7608699737e+02 6.1257495806e+02 1.7300000000e+02 0.0000e+00 1.0000e+00
       21  1    1    2  504  505 -2.3262194898e+01 -1.6559413205e+00 +7.7428644224e+01 8.0864496533e+01 0.0000000000e+00 0.0000e+00 -1.0000e+00
       21  1    1    2  505  501 -4.5234549179e-01 +3.1126423420e+01 +4.8728564947e+01 5.7823281584e+01 0.0000000000e+00 0.0000e+00 -1.0000e+00
<mgrwt>
<rscale>  4 0.19303676E+03</rscale>
<asrwt>0</asrwt>
<pdfrwt beam="1">  1       21 0.13444332E+00 0.19303676E+03</pdfrwt>
<pdfrwt beam="2">  1       21 0.13190732E-01 0.19303676E+03</pdfrwt>
<totfact> 0.19652779E+04</totfact>
</mgrwt>
</event>
<event>
 6      1 +2.5196620e+02 2.24803900e+02 7.54677100e-03 9.49153200e-02
       21 -1    0    0  505  502 +0.0000000000e+00 +0.0000000000e+00 +1.6524645839e+03 1.6524645839e+03 0.0000000000e+00 0.0000e+00 -1.0000e+00
       21 -1    0    0  501  503 -0.0000000000e+00 -0.0000000000e+00 -1.6726206014e+02 1.6726206014e+02 0.0000000000e+00 0.0000e+00 1.0000e+00
        6  1    1    2  501    0 -4.4544206608e+01 +1.4580984371e+02 -1.0175345342e+01 2.3081861822e+02 1.7300000000e+02 0.0000e+00 1.0000e+00
       -6  1    1    2    0  502 +1.1002859496e+01 -1.4718947030e+02 +1.3066873257e+03 1.3263282287e+03 1.7300000000e+02 0.0000e+00 -1.0000e+00
       21  1    1    2  504  503 +5.5454533441e+01 -2.9479561092e+00 -1.5115645492e+01 5.7553266310e+01 0.0000000000e+00 0.0000e+00 1.0000e+00
       21  1    1    2  505  504 -2.1913186328e+01 +4.3275826971e+00 +2.0380618887e+02 2.0502653079e+02 0.0000000000e+00 0.0000e+00 -1.0000e+00
<mgrwt>
<rscale>  4 0.22480394E+03</rscale>
<asrwt>0</asrwt>
<pdfrwt beam="1">  1       21 0.25422531E+00 0.22480394E+03</pdfrwt>
<pdfrwt beam="2">  1       21 0.25732626E-01 0.22480394E+03</pdfrwt>
<totfact> 0.86651537E+02</totfact>
</mgrwt>
</event>
<event>
 6      1 +2.5196620e+02 2.62613100e+02 7.54677100e-03 1.06301000e-01
       21 -1    0    0  505  502 +0.0000000000e+00 +0.0000000000e+00 +7.7780127953e+02 7.7780127953e+02 0.0000000000e+00 0.0000e+00 1.0000e+00
       21 -1    0    0  504  503 -0.0000000000e+00 -0.0000000000e+00 -8.1925829665e+02 8.1925829665e+02 0.0000000000e+00 0.0000e+00 1.0000e+00
        6  1    1    2  501    0 +2.2842888715e+02 -4.1113470219e+01 +2.6718539530e+02 3.9393795118e+02 1.7300000000e+02 0.0000e+00 1.0000e+00
       -6  1    1    2    0  503 -1.5046550071e+02 -4.5197101445e+01 -7.6853162746e+01 2.4600417376e+02 1.7300000000e+02 0.0000e+00 -1.0000e+00
       21  1    1    2  504  502 -5.8360505264e+01 +5.5901874366e+01 -5.9079329503e+02 5.9629496525e+02 0.0000000000e+00 0.0000e+00 1.0000e+00
       21  1    1    2  505  501 -1.9602881179e+01 +3.0408697299e+01 +3.5900404536e+02 3.6082248600e+02 0.0000000000e+00 0.0000e+00 1.0000e+00
<mgrwt>
<rscale>  4 0.26261307E+03</rscale>
<asrwt>0</asrwt>
<pdfrwt beam="1">  1       21 0.11966174E+00 0.26261307E+03</pdfrwt>
<pdfrwt beam="2">  1       21 0.12603974E+00 0.26261307E+03</pdfrwt>
<totfact> 0.23057205E+02</totfact>
</mgrwt>
</event>
<event>
 6      1 +2.5196620e+02 2.01852200e+02 7.54677100e-03 1.06301000e-01
       21 -1    0    0  505  502 +0.0000000000e+00 +0.0000000000e+00 +1.3802198688e+03 1.3802198688e+03 0.0000000000e+00 0.0000e+00 1.0000e+00
       21 -1    0    0  501  503 -0.0000000000e+00 -0.0000000000e+00 -1.2970458109e+02 1.2970458109e+02 0.0000000000e+00 0.0000e+00 1.0000e+00
        6  1    1    2  501    0 +7.4252705043e+01 -9.9084554320e+01 +2.3270650167e+02 3.1529752462e+02 1.7300000000e+02 0.0000e+00 -1.0000e+00
       -6  1    1    2    0  502 +7.0691162704e+00 +8.3836344906e+01 +4.5665637145e+02 4.9552249870e+02 1.7300000000e+02 0.0000e+00 -1.0000e+00
       21  1    1    2  504  503 -2.1549129016e+02 -6.8821740152e+01 +1.8938425545e+02 2.9502427742e+02 0.0000000000e+00 0.0000e+00 1.0000e+00
       21  1    1    2  505  504 +1.3416946885e+02 +8.4069949566e+01 +3.7176815910e+02 4.0408014912e+02 0.0000000000e+00 0.0000e+00 1.0000e+00
<mgrwt>
<rscale>  4 0.20185220E+03</rscale>
<asrwt>0</asrwt>
<pdfrwt beam="1">  1       21 0.21234151E+00 0.20185220E+03</pdfrwt>
<pdfrwt beam="2">  1       21 0.19954552E-01 0.20185220E+03</pdfrwt>
<totfact> 0.25764739E+03</totfact>
</mgrwt>
</event>
<event>
 6      1 +2.5196620e+02 2.44708100e+02 7.54677100e-03 9.49153200e-02
       21 -1    0    0  505  502 +0.0000000000e+00 +0.0000000000e+00 +2.5749654778e+02 2.5749654778e+02 0.0000000000e+00 0.0000e+00 1.0000e+00
       21 -1    0    0  504  503 -0.0000000000e+00 -0.0000000000e+00 -7.8779661266e+02 7.8779661266e+02 0.0000000000e+00 0.0000e+00 1.0000e+00
        6  1    1    2  501    0 -1.7958199081e+02 -5.2902110608e+01 -3.5209438771e+02 4.3468124251e+02 1.7300000000e+02 0.0000e+00 1.0000e+00
       -6  1    1    2    0  502 +1.2143750057e+02 +8.4627102618e+01 -5.5882709475e+01 2.3443696437e+02 1.7300000000e+02 0.0000e+00 1.0000e+00
       21  1    1    2  504  501 +2.3049966947e+01 -5.2538577304e+01 -2.4253427501e+02 2.4922776257e+02 0.0000000000e+00 0.0000e+00 1.0000e+00
       21  1    1    2  505  503 +3.5094523288e+01 +2.0813585294e+01 +1.2021130731e+02 1.2694719100e+02 0.0000000000e+00 0.0000e+00 1.0000e+00
<mgrwt>
<rscale>  4 0.24470808E+03</rscale>
<asrwt>0</asrwt>
<pdfrwt beam="1">  1       21 0.39614854E-01 0.24470808E+03</pdfrwt>
<pdfrwt beam="2">  1       21 0.12119948E+00 0.24470808E+03</pdfrwt>
<totfact> 0.30368162E+03</totfact>
</mgrwt>
</event>
<event>
 6      1 +2.5196620e+02 1.77697800e+02 7.54677100e-03 1.12691600e-01
       21 -1    0    0  504  502 +0.0000000000e+00 +0.0000000000e+00 +9.9657249276e+02 9.9657249276e+02 0.0000000000e+00 0.0000e+00 -1.0000e+00
       21 -1    0    0  505  503 -0.0000000000e+00 -0.0000000000e+00 -1.4292909602e+02 1.4292909602e+02 0.0000000000e+00 0.0000e+00 -1.0000e+00
        6  1    1    2  501    0 -1.3407512966e+01 +3.9456936037e+01 -2.1595206687e+01 1.7925390974e+02 1.7300000000e+02 0.0000e+00 -1.0000e+00
       -6  1    1    2    0  503 +3.4253599560e+01 -2.6018052549e+01 +1.8673916630e+02 2.5816809325e+02 1.7300000000e+02 0.0000e+00 -1.0000e+00
       21  1    1    2  504  501 -2.9173508183e+01 +5.2304695717e+01 +4.6860007579e+02 4.7241179685e+02 0.0000000000e+00 0.0000e+00 -1.0000e+00
       21  1    1    2  505  502 +8.3274215885e+00 -6.5743579205e+01 +2.1989936134e+02 2.2966778894e+02 0.0000000000e+00 0.0000e+00 -1.0000e+00
<mgrwt>
<rscale>  4 0.17769778E+03</rscale>
<asrwt>0</asrwt>
<pdfrwt beam="1">  1       21 0.15331884E+00 0.17769778E+03</pdfrwt>
<pdfrwt beam="2">  1       21 0.21989092E-01 0.17769778E+03</pdfrwt>
<totfact> 0.55211438E+03</totfact>
</mgrwt>
</event>
<event>
 6      1 +2.5196620e+02 2.52076900e+02 7.54677100e-03 1.07655700e-01
       21 -1    0    0  501  502 +0.0000000000e+00 +0.0000000000e+00 +1.2964678624e+03 1.2964678624e+03 0.0000000000e+00 0.0000e+00 -1.0000e+00
       21 -1    0    0  504  503 -0.0000000000e+00 -0.0000000000e+00 -8.8681775887e+01 8.8681775887e+01 0.0000000000e+00 0.0000e+00 1.0000e+00
        6  1    1    2  501    0 +2.0060076730e+02 +7.3166819482e+01 +6.7445657991e+02 7.2829577062e+02 1.7300000000e+02 0.0000e+00 -1.0000e+00
       -6  1    1    2    0  505 -1.4706863865e+02 -2.7379221946e+01 +3.8745333153e+02 4.4991987106e+02 1.7300000000e+02 0.0000e+00 1.0000e+00
       21  1    1    2  504  502 -7.1558530038e+00 -8.2091243958e+01 +5.6554288537e+01 9.9942814243e+01 0.0000000000e+00 0.0000e+00 1.0000e+00
       21  1    1    2  505  503 -4.6376275651e+01 +3.6303646422e+01 +8.9321886506e+01 1.0699118233e+02 0.0000000000e+00 0.0000e+00 -1.0000e+00
<mgrwt>
<rscale>  4 0.25207685E+03</rscale>
<asrwt>0</asrwt>
<pdfrwt beam="1">  1       21 0.19945658E+00 0.25207685E+03</pdfrwt>
<pdfrwt beam="2">  1       21 0.13643351E-01 0.25207685E+03</pdfrwt>
<totfact> 0.60115800E+03</totfact>
</mgrwt>
</event>
<event>
 6      1 +2.5196620e+02 3.60988600e+02 7.54677100e-03 1.02776600e-01
       21 -1    0    0  501  502 +0.0000000000e+00 +0.0000000000e+00 +8.1175440150e+02 8.1175440150e+02 0.0000000000e+00 0.0000e+00 -1.0000e+00
       21 -1    0    0  502  503 -0.0000000000e+00 -0.0000000000e+00 -4.0910841530e+02 4.0910841530e+02 0.0000000000e+00 0.0000e+00 1.0000e+00
        6  1    1    2  501    0 -4.7548506300e+01 +7.6239370104e+01 +1.3754631641e+02 2.3858183327e+02 1.7300000000e+02 0.0000e+00 -1.0000e+00
       -6  1    1    2    0  504 -2.6317006974e+02 -1.5495721385e+02 +4.7620785209e+02 5.9158527883e+02 1.7300000000e+02 0.0000e+00 -1.0000e+00
       21  1    1    2  504  505 +2.4588110198e+02 +9.1972844618e+01 -1.7136615199e+02 3.1350100240e+02 0.0000000000e+00 0.0000e+00 1.0000e+00
       21  1    1    2  505  503 +6.4837474058e+01 -1.3255000867e+01 -3.9742030312e+01 7.7194702302e+01 0.0000000000e+00 0.0000e+00 -1.0000e+00
<mgrwt>
<rscale>  4 0.30945421E+03</rscale>
<asrwt>0</asrwt>
<pdfrwt beam="1">  1       21 0.12488529E+00 0.36098865E+03</pdfrwt>
<pdfrwt beam="2">  1       21 0.62939756E-01 0.36098865E+03</pdfrwt>
<totfact> 0.98757352E+02</totfact>
</mgrwt>
</event>
<event>
 6      1 +2.5196620e+02 2.60867200e+02 7.54677100e-03 1.09079000e-01
       21 -1    0    0  505  502 +0.0000000000e+00 +0.0000000000e+00 +1.2758672426e+03 1.2758672426e+03 0.0000000000e+00 0.0000e+00 -1.0000e+00
       21 -1    0    0  501  503 -0.0000000000e+00 -0.0000000000e+00 -3.3978222610e+02 3.3978222610e+02 0.0000000000e+00 0.0000e+00 -1.0000e+00
        6  1    1    2  501    0 +1.3970815408e+01 +1.8893633581e+02 -2.3472670037e+02 3.4773229148e+02 1.7300000000e+02 0.0000e+00 -1.0000e+00
       -6  1    1    2    0  504 +1.1823225613e+01 -2.4986287879e+02 +4.7478122119e+02 5.6384169308e+02 1.7300000000e+02 0.0000e+00 -1.0000e+00
       21  1    1    2  504  502 -6.2763936145e+00 +6.8573178922e+01 +3.1360688142e+02 3.2107779441e+02 0.0000000000e+00 0.0000e+00 -1.0000e+00
       21  1    1    2  505  503 -1.9517647407e+01 -7.6466359338e+00 +3.8242361430e+02 3.8299768977e+02 0.0000000000e+00 0.0000e+00 -1.0000e+00
<mgrwt>
<rscale>  4 0.26086715E+03</rscale>
<asrwt>0</asrwt>
<pdfrwt beam="1">  1       21 0.19628727E+00 0.26086715E+03</pdfrwt>
<pdfrwt beam="2">  1       21 0.52274189E-01 0.26086715E+03</pdfrwt>
<totfact> 0.45838483E+02</totfact>
</mgrwt>
</event>
<event>
 6      1 +2.5196620e+02 2.11185200e+02 7.54677100e-03 1.16321900e-01
       21 -1    0    0  503  502 +0.0000000000e+00 +0.0000000000e+00 +5.5571679244e+02 5.5571679244e+02 0.0000000000e+00 0.0000e+00 -1.0000e+00
       21 -1    0    0  505  503 -0.0000000000e+00 -0.0000000000e+00 -1.9815994308e+02 1.9815994308e+02 0.0000000000e+00 0.0000e+00 -1.0000e+00
        6  1    1    2  501    0 -9.5899992943e+01 +1.8337001727e+01 +2.2649930732e+02 3.0127062667e+02 1.7300000000e+02 0.0000e+00 1.0000e+00
       -6  1    1    2    0  502 +1.4708196143e+02 -3.4572184773e+01 +2.2937075123e+02 3.2460480720e+02 1.7300000000e+02 0.0000e+00 -1.0000e+00
       21  1    1    2  504  501 -4.0975793204e+01 +3.3635818985e+01 -9.3148743928e+01 1.0717776095e+02 0.0000000000e+00 0.0000e+00 -1.0000e+00
       21  1    1    2  505  504 -1.0206175287e+01 -1.7400635940e+01 -5.1644652655e+00 2.0823540683e+01 0.0000000000e+00 0.0000e+00 1.0000e+00
<mgrwt>
<rscale>  4 0.21118523E+03</rscale>
<asrwt>0</asrwt>
<pdfrwt beam="1">  1       21 0.85494890E-01 0.21118523E+03</pdfrwt>
<pdfrwt beam="2">  1       21 0.30486145E-01 0.21118523E+03</pdfrwt>
<totfact> 0.12061960E+04</totfact>
</mgrwt>
</event>
<event>
 6      1 +2.5196620e+02 2.53627400e+02 7.54677100e-03 9.49153200e-02
       21 -1    0    0  503  502 +0.0000000000e+00 +0.0000000000e+00 +6.5320060696e+02 6.5320060696e+02 0.0000000000e+00 0.0000e+00 1.0000e+00
       21 -1    0    0  504  503 -0.0000000000e+00 -0.0000000000e+00 -1.0370098862e+03 1.0370098862e+03 0.0000000000e+00 0.0000e+00 -1.0000e+00
        6  1    1    2  501    0 +8.1248503541e+01 -1.1946271726e+02 -2.1033069277e+02 3.0828665308e+02 1.7300000000e+02 0.0000e+00 -1.0000e+00
       -6  1    1    2    0  505 -2.7237637974e+02 +2.5919778710e+02 +2.1909157799e+02 4.6829745314e+02 1.7300000000e+02 0.0000e+00 -1.0000e+00
       21  1    1    2  504  501 +1.8425221994e+00 -2.4948014345e+01 -6.0576878803e+02 6.0628510031e+02 0.0000000000e+00 0.0000e+00 -1.0000e+00
       21  1    1    2  505  502 +1.8928535400e+02 -1.1478705549e+02 +2.1319862360e+02 3.0734128660e+02 0.0000000000e+00 0.0000e+00 1.0000e+00
<mgrwt>
<rscale>  4 0.25362739E+03</rscale>
<asrwt>0</asrwt>
<pdfrwt beam="1">  1       21 0.10049240E+00 0.25362739E+03</pdfrwt>
<pdfrwt beam="2">  1       21 0.15953998E+00 0.25362739E+03</pdfrwt>
<totfact> 0.19209397E+02</totfact>
</mgrwt>
</event>
<event>
 6      1 +2.5196620e+02 2.90676900e+02 7.54677100e-03 1.16321900e-01
       21 -1    0    0  504  502 +0.0000000000e+00 +0.0000000000e+00 +1.1232881178e+03 1.1232881178e+03 0.0000000000e+00 0.0000e+00 -1.0000e+00
       21 -1    0    0  501  503 -0.0000000000e+00 -0.0000000000e+00 -3.9515235570e+02 3.9515235570e+02 0.0000000000e+00 0.0000e+00 -1.0000e+00
        6  1    1    2  501    0 -1.4840139013e+02 +9.9409966112e+01 -3.7030989752e+01 2.5140725558e+02 1.7300000000e+02 0.0000e+00 -1.0000e+00
       -6  1    1    2    0  502 +2.4811997259e+02 +7.1227339262e+00 +8.9377107218e+02 9.4359418375e+02 1.7300000000e+02 0.0000e+00 -1.0000e+00
       21  1    1    2  504  505 -1.0640038245e+02 -6.8136589898e+01 +5.3502569633e+01 1.3720845902e+02 0.0000000000e+00 0.0000e+00 -1.0000e+00
       21  1    1    2  505  503 +6.6817999943e+00 -3.8396110140e+01 -1.8210689000e+02 1.8623057512e+02 0.0000000000e+00 0.0000e+00 -1.0000e+00
<mgrwt>
<rscale>  4 0.29067686E+03</rscale>
<asrwt>0</asrwt>
<pdfrwt beam="1">  1       21 0.17281356E+00 0.29067686E+03</pdfrwt>
<pdfrwt beam="2">  1       21 0.60792670E-01 0.29067686E+03</pdfrwt>
<totfact> 0.46761892E+02</totfact>
</mgrwt>
</event>
<event>
 6      1 +2.5196620e+02 2.82335100e+02 7.54677100e-03 9.49153200e-02
       21 -1    0    0  505  502 +0.0000000000e+00 +0.0000000000e+00 +4.7079328173e+02 4.7079328173e+02 0.0000000000e+00 0.0000e+00 1.0000e+00
       21 -1    0    0  501  503 -0.0000000000e+00 -0.0000000000e+00 -1.0365736326e+03 1.0365736326e+03 0.0000000000e+00 0.0000e+00 1.0000e+00
        6  1    1    2  501    0 -4.1758825474e+01 +2.1657674787e+02 -3.8838445921e+02 4.7897888824e+02 1.7300000000e+02 0.0000e+00 1.0000e+00
       -6  1    1    2    0  502 -2.0800467225e+02 -8.4335719933e+01 -1.0999548481e+02 3.0398431541e+02 1.7300000000e+02 0.0000e+00 1.0000e+00
       21  1    1    2  504  503 +2.6034479875e+01 -1.5106963893e+02 -3.3898140660e+02 3.7203255768e+02 0.0000000000e+00 0.0000e+00 1.0000e+00
       21  1    1    2  505  504 +2.2372901785e+02 +1.8828610987e+01 +2.7158099977e+02 3.5237115299e+02 0.0000000000e+00 0.0000e+00 1.0000e+00
<mgrwt>
<rscale>  4 0.26290021E+03</rscale>
<asrwt>0</asrwt>
<pdfrwt beam="1">  1       21 0.72429737E-01 0.28233510E+03</pdfrwt>
<pdfrwt beam="2">  1       21 0.15947286E+00 0.28233510E+03</pdfrwt>
<totfact> 0.39963463E+02</totfact>
</mgrwt>
</event>
<event>
 6      1 +2.5196620e+02 2.92531600e+02 7.54677100e-03 1.06301000e-01
       21 -1    0    0  504  502 +0.0000000000e+00 +0.0000000000e+00 +4.5029877373e+02 4.5029877373e+02 0.0000000000e+00 0.0000e+00 1.0000e+00
       21 -1    0    0  501  503 -0.0000000000e+00 -0.0000000000e+00 -3.9024913453e+02 3.9024913453e+02 0.0000000000e+00 0.0000e+00 -1.0000e+00
        6  1    1    2  501    0 -1.3945479024e+02 -7.9464095151e+01 -1.0336647033e+02 2.5763502892e+02 1.7300000000e+02 0.0000e+00 -1.0000e+00
       -6  1    1    2    0  505 +2.0746622108e+02 +1.8672869034e+02 +1.7037683324e+02 3.6995554055e+02 1.7300000000e+02 0.0000e+00 1.0000e+00
       21  1    1    2  504  503 -1.0257031194e+02 -1.3425409839e+02 -7.2413920069e+00 1.6910727241e+02 0.0000000000e+00 0.0000e+00 1.0000e+00
       21  1    1    2  505  502 +3.4558881106e+01 +2.6989503200e+01 +2.8066829221e-01 4.3850066374e+01 0.0000000000e+00 0.0000e+00 -1.0000e+00
<mgrwt>
<rscale>  4 0.29253158E+03</rscale>
<asrwt>0</asrwt>
<pdfrwt beam="1">  1       21 0.69276735E-01 0.29253158E+03</pdfrwt>
<pdfrwt beam="2">  1       21 0.60038328E-01 0.29253158E+03</pdfrwt>
<totfact> 0.45967018E+03</totfact>
</mgrwt>
</event>
<event>
 6      1 +2.5196620e+02 3.03347400e+02 7.54677100e-03 1.09711200e-01
       21 -1    0    0  501  502 +0.0000000000e+00 +0.0000000000e+00 +1.9303206768e+02 1.9303206768e+02 0.0000000000e+00 0.0000e+00 1.0000e+00
       21 -1    0    0  505  503 -0.0000000000e+00 -0.0000000000e+00 -1.2888492797e+03 1.2888492797e+03 0.0000000000e+00 0.0000e+00 -1.0000e+00
        6  1    1    2  501    0 +2.9898588677e+02 +7.0838685914e+01 -5.9483626340e+02 6.9149827199e+02 1.7300000000e+02 0.0000e+00 -1.0000e+00
       -6  1    1    2    0  503 -9.2751428971e+01 +5.0124466961e+01 -4.8869013334e+02 5.2902016614e+02 1.7300000000e+02 0.0000e+00 1.0000e+00
       21  1    1    2  504  502 -1.0106694034e+02 -3.8779478566e-01 -5.8932088693e+00 1.0123935364e+02 0.0000000000e+00 0.0000e+00 1.0000e+00
       21  1    1    2  505  504 -1.0516751746e+02 -1.2057535809e+02 -6.3976064584e+00 1.6012355565e+02 0.0000000000e+00 0.0000e+00 1.0000e+00
<mgrwt>
<rscale>  4 0.27422798E+03</rscale>
<asrwt>0</asrwt>
<pdfrwt beam="1">  1       21 0.29697241E-01 0.30334737E+03</pdfrwt>
<pdfrwt beam="2">  1       21 0.19828451E+00 0.30334737E+03</pdfrwt>
<totfact> 0.13606350E+03</totfact>
</mgrwt>
</event>
<event>
 6      1 +2.5196620e+02 2.06764500e+02 7.54677100e-03 1.06301000e-01
       21 -1    0    0  504  502 +0.0000000000e+00 +0.0000000000e+00 +5.6080264188e+02 5.6080264188e+02 0.0000000000e+00 0.0000e+00 -1.0000e+00
       21 -1    0    0  501  503 -0.0000000000e+00 -0.0000000000e+00 -9.5050255437e+02 9.5050255437e+02 0.0000000000e+00 0.0000e+00 -1.0000e+00
        6  1    1    2  501    0 -1.0031886508e+02 -3.5795675684e+01 -4.9857489417e+02 5.3837824082e+02 1.7300000000e+02 0.0000e+00 -1.0000e+00
       -6  1    1    2    0  505 +1.4737536235e+02 +6.7427543049e+00 +3.1070824488e+02 3.8501113698e+02 1.7300000000e+02 0.0000e+00 -1.0000e+00
       21  1    1    2  504  503 -1.0862375452e+01 +2.4360289545e+01 -3.9269303676e+02 3.9359780999e+02 0.0000000000e+00 0.0000e+00 -1.0000e+00
       21  1    1    2  505  502 -3.6194121815e+01 +4.6926318340e+00 +1.9085977356e+02 1.9431800846e+02 0.0000000000e+00 0.0000e+00 -1.0000e+00
<mgrwt>
<rscale>  4 0.20676446E+03</rscale>
<asrwt>0</asrwt>
<pdfrwt beam="1">  1       21 0.86277330E-01 0.20676446E+03</pdfrwt>
<pdfrwt beam="2">  1       21 0.14623116E+00 0.20676446E+03</pdfrwt>
<totfact> 0.36402622E+02</totfact>
</mgrwt>
</event>
<event>
 6      1 +2.5196620e+02 1.92683900e+02 7.54677100e-03 1.13287100e-01
       21 -1    0    0  504  502 +0.0000000000e+00 +0.0000000000e+00 +2.3700193897e+03 2.3700193897e+03 0.0000000000e+00 0.0000e+00 -1.0000e+00
       21 -1    0    0  505  503 -0.0000000000e+00 -0.0000000000e+00 -2.0484528366e+02 2.0484528366e+02 0.0000000000e+00 0.0000e+00 -1.0000e+00
        6  1    1    2  501    0 -7.8278492830e+01 +3.0520826535e+01 -1.1702784258e+02 2.2513009402e+02 1.7300000000e+02 0.0000e+00 -1.0000e+00
       -6  1    1    2    0  503 +7.5334957512e+01 -5.2885915759e+01 +2.9615559602e+02 3.5511887159e+02 1.7300000000e+02 0.0000e+00 -1.0000e+00
       21  1    1    2  504  501 -3.7515306469e+01 +7.3703206704e+00 +8.6420155422e+01 9.4499540260e+01 0.0000000000e+00 0.0000e+00 1.0000e+00
       21  1    1    2  505  502 +4.0458841787e+01 +1.4994768554e+01 +1.8996261972e+03 1.9001161675e+03 0.0000000000e+00 0.0000e+00 -1.0000e+00
<mgrwt>
<rscale>  4 0.19268393E+03</rscale>
<asrwt>0</asrwt>
<pdfrwt beam="1">  1       21 0.36461835E+00 0.19268393E+03</pdfrwt>
<pdfrwt beam="2">  1       21 0.31514661E-01 0.19268393E+03</pdfrwt>
<totfact> 0.13854794E+02</totfact>
</mgrwt>
</event>
<event>
 6      1 +2.5196620e+02 1.75806200e+02 7.54677100e-03 1.06301000e-01
       21 -1    0    0  505  502 +0.0000000000e+00 +0.0000000000e+00 +3.5576319692e+02 3.5576319692e+02 0.0000000000e+00 0.0000e+00 -1.0000e+00
       21 -1    0    0  504  503 -0.0000000000e+00 -0.0000000000e+00 -1.0599149168e+03 1.0599149168e+03 0.0000000000e+00 0.0000e+00 -1.0000e+00
        6  1    1    2  501    0 +3.6369208269e+01 -3.2592056718e+01 +1.2797418417e+02 2.2066117303e+02 1.7300000000e+02 0.0000e+00 -1.0000e+00
       -6  1    1    2    0  503 -9.8765071685e+00 +2.1386848358e+01 -9.8125303196e+02 9.9666516714e+02 1.7300000000e+02 0.0000e+00 -1.0000e+00
       21  1    1    2  504  502 -1.9759653127e+01 -1.2457668126e+01 -1.7958694822e+01 2.9464421029e+01 0.0000000000e+00 0.0000e+00 1.0000e+00
       21  1    1    2  505  501 -6.7330479732e+00 +2.3662876486e+01 +1.6708582276e+02 1.6888735247e+02 0.0000000000e+00 0.0000e+00 -1.0000e+00
<mgrwt>
<rscale>  4 0.17580617E+03</rscale>
<asrwt>0</asrwt>
<pdfrwt beam="1">  1       21 0.54732799E-01 0.17580617E+03</pdfrwt>
<pdfrwt beam="2">  1       21 0.16306383E+00 0.17580617E+03</pdfrwt>
<totfact> 0.76824006E+02</totfact>
</mgrwt>
</event>
<event>
 6      1 +2.5196620e+02 1.93884100e+02 7.54677100e-03 9.49153200e-02
       21 -1    0    0  505  502 +0.0000000000e+00 +0.0000000000e+00 +3.6452633771e+02 3.6452633771e+02 0.0000000000e+00 0.0000e+00 1.0000e+00
       21 -1    0    0  501  503 -0.0000000000e+00 -0.0000000000e+00 -1.4971634078e+03 1.4971634078e+03 0.0000000000e+00 0.0000e+00 1.0000e+00
        6  1    1    2  501    0 -2.1194809110e+01 -9.9043951262e+01 -2.7029019145e+02 3.3651851629e+02 1.7300000000e+02 0.0000e+00 -1.0000e+00
       -6  1    1    2    0  502 +4.0352121535e+00 +7.0873109661e+01 -1.4106452002e+02 2.3423808277e+02 1.7300000000e+02 0.0000e+00 -1.0000e+00
       21  1    1    2  504  503 +2.0931638560e+01 +2.4292521064e+00 -1.0054030233e+03 1.0056238233e+03 0.0000000000e+00 0.0000e+00 1.0000e+00
       21  1    1    2  505  504 -3.7720416039e+00 +2.5741589495e+01 +2.8412066472e+02 2.8530932310e+02 0.0000000000e+00 0.0000e+00 1.0000e+00
<mgrwt>
<rscale>  4 0.19388408E+03</rscale>
<asrwt>0</asrwt>
<pdfrwt beam="1">  1       21 0.56080975E-01 0.19388408E+03</pdfrwt>
<pdfrwt beam="2">  1       21 0.23033283E+00 0.19388408E+03</pdfrwt>
<totfact> 0.26012482E+02</totfact>
</mgrwt>
</event>
<event>
 6      1 +2.5196620e+02 1.78342700e+02 7.54677100e-03 1.16726300e-01
       21 -1    0    0  504  502 +0.0000000000e+00 +0.0000000000e+00 +4.6513219288e+02 4.6513219288e+02 0.0000000000e+00 0.0000e+00 -1.0000e+00
       21 -1    0    0  502  503 -0.0000000000e+00 -0.0000000000e+00 -3.3139320049e+02 3.3139320049e+02 0.0000000000e+00 0.0000e+00 -1.0000e+00
        6  1    1    2  501    0 -2.8711375439e+01 -3.7351458600e+01 +2.1220615353e+02 2.7781275373e+02 1.7300000000e+02 0.0000e+00 -1.0000e+00
       -6  1    1    2    0  505 -4.2049190685e+01 +4.2171671429e+01 +1.3653076304e+02 2.2828980171e+02 1.7300000000e+02 0.0000e+00 -1.0000e+00
       21  1    1    2  504  501 -6.2455519531e-01 -2.9714355569e+01 +2.4976043456e+01 3.8821846206e+01 0.0000000000e+00 0.0000e+00 1.0000e+00
       21  1    1    2  505  503 +7.1385121320e+01 +2.4894142740e+01 -2.3997396764e+02 2.5160099172e+02 0.0000000000e+00 0.0000e+00 -1.0000e+00
<mgrwt>
<rscale>  4 0.17834267E+03</rscale>
<asrwt>0</asrwt>
<pdfrwt beam="1">  1       21 0.71558799E-01 0.17834267E+03</pdfrwt>
<pdfrwt beam="2">  1       21 0.50983569E-01 0.17834267E+03</pdfrwt>
<totfact> 0.65274470E+03</totfact>
</mgrwt>
</event>
<event>
 6      1 +2.5196620e+02 1.75067600e+02 7.54677100e-03 1.06301000e-01
       21 -1    0    0  505  502 +0.0000000000e+00 +0.0000000000e+00 +6.6320953666e+02 6.6320953666e+02 0.0000000000e+00 0.0000e+00 1.0000e+00
       21 -1    0    0  504  503 -0.0000000000e+00 -0.0000000000e+00 -2.1781517538e+02 2.1781517538e+02 0.0000000000e+00 0.0000e+00 1.0000e+00
        6  1    1    2  501    0 +4.0752113072e+00 +7.1670757424e+01 +1.0149137096e+02 2.1303239941e+02 1.7300000000e+02 0.0000e+00 1.0000e+00
       -6  1    1    2    0  503 -4.5083930914e+01 +7.0233913253e+01 +2.5614331388e+02 3.2016208495e+02 1.7300000000e+02 0.0000e+00 -1.0000e+00
       21  1    1    2  504  502 +9.9808133690e+00 -1.2660593818e+02 -9.7034318379e+01 1.5982596523e+02 0.0000000000e+00 0.0000e+00 1.0000e+00
       21  1    1    2  505  501 +3.1027906238e+01 -1.5298732495e+01 +1.8479399481e+02 1.8800426245e+02 0.0000000000e+00 0.0000e+00 1.0000e+00
<mgrwt>
<rscale>  4 0.17506759E+03</rscale>
<asrwt>0</asrwt>
<pdfrwt beam="1">  1       21 0.10203224E+00 0.17506759E+03</pdfrwt>
<pdfrwt beam="2">  1       21 0.33510027E-01 0.17506759E+03</pdfrwt>
<totfact> 0.68039658E+03</totfact>
</mgrwt>
</event>
<event>
 6      1 +2.5196620e+02 2.26249600e+02 7.54677100e-03 1.16128000e-01
       21 -1    0    0  501  502 +0.0000000000e+00 +0.0000000000e+00 +3.4504869201e+02 3.4504869201e+02 0.0000000000e+00 0.0000e+00 -1.0000e+00
       21 -1    0    0  505  503 -0.0000000000e+00 -0.0000000000e+00 -3.0879456238e+02 3.0879456238e+02 0.0000000000e+00 0.0000e+00 -1.0000e+00
        6  1    1    2  501    0 +1.0553383907e+01 -1.8008501919e+02 +1.7365833037e+02 3.0434881921e+02 1.7300000000e+02 0.0000e+00 -1.0000e+00
       -6  1    1    2    0  503 +3.9425896218e+01 +1.3387008885e+02 -1.6165978842e+02 2.7484266258e+02 1.7300000000e+02 0.0000e+00 -1.0000e+00
       21  1    1    2  504  502 -4.0153778024e+01 +2.5507187501e+01 +1.4399893022e+01 4.9702106825e+01 0.0000000000e+00 0.0000e+00 -1.0000e+00
       21  1    1    2  505  504 -9.8255021004e+00 +2.0707742833e+01 +9.8556946629e+00 2.4949665770e+01 0.0000000000e+00 0.0000e+00 -1.0000e+00
<mgrwt>
<rscale>  4 0.22624956E+03</rscale>
<asrwt>0</asrwt>
<pdfrwt beam="1">  1       21 0.53084414E-01 0.22624956E+03</pdfrwt>
<pdfrwt beam="2">  1       21 0.47506856E-01 0.22624956E+03</pdfrwt>
<totfact> 0.13951790E+04</totfact>
</mgrwt>
</event>
<event>
 6      1 +2.5196620e+02 2.62551700e+02 7.54677100e-03 1.06301000e-01
       21 -1    0    0  505  502 +0.0000000000e+00 +0.0000000000e+00 +2.6318320276e+02 2.6318320276e+02 0.0000000000e+00 0.0000e+00 -1.0000e+00
       21 -1    0    0  501  503 -0.0000000000e+00 -0.0000000000e+00 -7.6880988160e+02 7.6880988160e+02 0.0000000000e+00 0.0000e+00 -1.0000e+00
        6  1    1    2  501    0 -9.0602032621e+01 +1.0167711023e+02 -1.5569017886e+02 2.6965792192e+02 1.7300000000e+02 0.0000e+00 -1.0000e+00
       -6  1    1    2    0  502 +1.8758944053e+02 -1.7835078122e+02 -3.9095073126e+02 4.9977022084e+02 1.7300000000e+02 0.0000e+00 -1.0000e+00
       21  1    1    2  504  503 -1.6814547012e+01 +1.5925841136e+01 -9.2525473671e+01 9.5379896651e+01 0.0000000000e+00 0.0000e+00 -1.0000e+00
       21  1    1    2  505  504 -8.0172860900e+01 +6.0747829849e+01 +1.3353970496e+02 1.6718504495e+02 0.0000000000e+00 0.0000e+00 -1.0000e+00
<mgrwt>
<rscale>  4 0.26255174E+03</rscale>
<asrwt>0</asrwt>
<pdfrwt beam="1">  1       21 0.40489725E-01 0.26255174E+03</pdfrwt>
<pdfrwt beam="2">  1       21 0.11827844E+00 0.26255174E+03</pdfrwt>
<totfact> 0.30506330E+03</totfact>
</mgrwt>
</event>
<event>
 6      1 +2.5196620e+02 2.02503600e+02 7.54677100e-03 1.15334700e-01
       21 -1    0    0  501  502 +0.0000000000e+00 +0.0000000000e+00 +7.6801862201e+01 7.6801862201e+01 0.0000000000e+00 0.0000e+00 -1.0000e+00
       21 -1    0    0  505  503 -0.0000000000e+00 -0.0000000000e+00 -1.3420974730e+03 1.3420974730e+03 0.0000000000e+00 0.0000e+00 -1.0000e+00
        6  1    1    2  501    0 -1.0589785893e+02 +2.5307356659e+01 -1.2901147021e+02 2.4171838629e+02 1.7300000000e+02 0.0000e+00 -1.0000e+00
       -6  1    1    2    0  504 +1.4014451323e+02 +6.0194655979e+00 -9.0413409066e+02 9.3116280663e+02 1.7300000000e+02 0.0000e+00 -1.0000e+00
       21  1    1    2  504  503 +1.2204154152e+01 -2.6873919825e+01 -5.0715562291e+01 5.8678933220e+01 0.0000000000e+00 0.0000e+00 1.0000e+00
       21  1    1    2  505  502 -4.6450808455e+01 -4.4529024314e+00 -1.8143448764e+02 1.8733920906e+02 0.0000000000e+00 0.0000e+00 1.0000e+00
<mgrwt>
<rscale>  4 0.20250362E+03</rscale>
<asrwt>0</asrwt>
<pdfrwt beam="1">  1       21 0.11815671E-01 0.20250362E+03</pdfrwt>
<pdfrwt beam="2">  1       21 0.20647654E+00 0.20250362E+03</pdfrwt>
<totfact> 0.73028319E+03</totfact>
</mgrwt>
</event>
<event>
 6      1 +2.5196620e+02 3.29365700e+02 7.54677100e-03 1.09711200e-01
       21 -1    0    0  501  502 +0.0000000000e+00 +0.0000000000e+00 +1.1518466568e+03 1.1518466568e+03 0.0000000000e+00 0.0000e+00 1.0000e+00
       21 -1    0    0  505  503 -0.0000000000e+00 -0.0000000000e+00 -1.6589734615e+03 1.6589734615e+03 0.0000000000e+00 0.0000e+00 -1.0000e+00
        6  1    1    2  501    0 -9.5128818140e+01 +3.0382377146e+02 +4.3913964557e+02 5.6932504289e+02 1.7300000000e+02 0.0000e+00 1.0000e+00
       -6  1    1    2    0  503 +8.7672505053e+01 -2.6485803828e+02 -1.5701100386e+03 1.6040607164e+03 1.7300000000e+02 0.0000e+00 -1.0000e+00
       21  1    1    2  504  502 +1.6515589400e+01 +1.6426972862e+01 +5.0974863926e+02 5.1028059473e+02 0.0000000000e+00 0.0000e+00 1.0000e+00
       21  1    1    2  505  504 -9.0592763126e+00 -5.5392706047e+01 +1.1409494906e+02 1.2715376429e+02 0.0000000000e+00 0.0000e+00 1.0000e+00
<mgrwt>
<rscale>  4 0.32936568E+03</rscale>
<asrwt>0</asrwt>
<pdfrwt beam="1">  1       21 0.17720718E+00 0.32936568E+03</pdfrwt>
<pdfrwt beam="2">  1       21 0.25522669E+00 0.32936568E+03</pdfrwt>
<totfact> 0.96712090E+00</totfact>
</mgrwt>
</event>
<event>
 6      1 +2.5196620e+02 1.96440000e+02 7.54677100e-03 9.49153200e-02
       21 -1    0    0  505  502 +0.0000000000e+00 +0.0000000000e+00 +2.1678652691e+01 2.1678652691e+01 0.0000000000e+00 0.0000e+00 -1.0000e+00
       21 -1    0    0  501  503 -0.0000000000e+00 -0.0000000000e+00 -3.1999469617e+03 3.1999469617e+03 0.0000000000e+00 0.0000e+00 1.0000e+00
        6  1    1    2  501    0 -8.4878463252e+01 +7.1554378783e+01 -1.3897363021e+03 1.4048559969e+03 1.7300000000e+02 0.0000e+00 1.0000e+00
       -6  1    1    2    0  502 +7.3060033678e+01 -2.7455946551e+01 -1.3799672721e+03 1.3929573825e+03 1.7300000000e+02 0.0000e+00 1.0000e+00
       21  1    1    2  504  503 +1.3675005152e+01 -2.1928269689e+01 -3.9859649693e+02 3.9943337635e+02 0.0000000000e+00 0.0000e+00 -1.0000e+00
       21  1    1    2  505  504 -1.8565755774e+00 -2.2170162543e+01 -9.9682378792e+00 2.4378858597e+01 0.0000000000e+00 0.0000e+00 -1.0000e+00
<mgrwt>
<rscale>  4 0.19644000E+03</rscale>
<asrwt>0</asrwt>
<pdfrwt beam="1">  1       21 0.33351783E-02 0.19644000E+03</pdfrwt>
<pdfrwt beam="2">  1       21 0.49229939E+00 0.19644000E+03</pdfrwt>
<totfact> 0.11312173E+03</totfact>
</mgrwt>
</event>
<event>
 6      1 +2.5196620e+02 2.51924200e+02 7.54677100e-03 1.16321900e-01
       21 -1    0    0  504  502 +0.0000000000e+00 +0.0000000000e+00 +1.5994159694e+02 1.5994159694e+02 0.0000000000e+00 0.0000e+00 1.0000e+00
       21 -1    0    0  501  503 -0.0000000000e+00 -0.0000000000e+00 -2.1224653470e+03 2.1224653470e+03 0.0000000000e+00 0.0000e+00 1.0000e+00
        6  1    1    2  501    0 +5.5498391460e+01 +1.4017761786e+02 -1.1234704930e+03 1.1466668150e+03 1.7300000000e+02 0.0000e+00 -1.0000e+00
       -6  1    1    2    0  502 +3.6287631134e+01 -2.3850379714e+01 -5.8619436073e+01 1.8775215331e+02 1.7300000000e+02 0.0000e+00 1.0000e+00
       21  1    1    2  504  505 -1.9908127967e+02 -2.7912436385e+02 -4.8147639908e+02 5.9106961458e+02 0.0000000000e+00 0.0000e+00 1.0000e+00
       21  1    1    2  505  503 +1.0729525708e+02 +1.6279712571e+02 -2.9895742193e+02 3.5691836105e+02 0.0000000000e+00 0.0000e+00 1.0000e+00
<mgrwt>
<rscale>  4 0.23108980E+03</rscale>
<asrwt>0</asrwt>
<pdfrwt beam="1">  1       21 0.24606402E-01 0.25192420E+03</pdfrwt>
<pdfrwt beam="2">  1       21 0.32653310E+00 0.25192420E+03</pdfrwt>
<totfact> 0.34581691E+02</totfact>
</mgrwt>
</event>
<event>
 6      1 +2.5196620e+02 1.98898100e+02 7.54677100e-03 1.15987100e-01
       21 -1    0    0  501  502 +0.0000000000e+00 +0.0000000000e+00 +9.7831744130e+02 9.7831744130e+02 0.0000000000e+00 0.0000e+00 -1.0000e+00
       21 -1    0    0  504  503 -0.0000000000e+00 -0.0000000000e+00 -3.1387180202e+02 3.1387180202e+02 0.0000000000e+00 0.0000e+00 1.0000e+00
        6  1    1    2  501    0 -9.0266373701e+01 -2.4573448468e+01 +7.8261035225e+02 8.0694475402e+02 1.7300000000e+02 0.0000e+00 -1.0000e+00
       -6  1    1    2    0  505 +1.8929104770e+02 -6.4813977642e+01 -9.6806141341e+01 2.8166004587e+02 1.7300000000e+02 0.0000e+00 1.0000e+00
       21  1    1    2  504  502 -5.3347697913e+01 +8.5450630884e+01 +5.4810581382e+01 1.1468211291e+02 0.0000000000e+00 0.0000e+00 1.0000e+00
       21  1    1    2  505  503 -4.5676976085e+01 +3.9367952264e+00 -7.6169153013e+01 8.8902330519e+01 0.0000000000e+00 0.0000e+00 1.0000e+00
<mgrwt>
<rscale>  4 0.19889806E+03</rscale>
<asrwt>0</asrwt>
<pdfrwt beam="1">  1       21 0.15051037E+00 0.19889806E+03</pdfrwt>
<pdfrwt beam="2">  1       21 0.48287970E-01 0.19889806E+03</pdfrwt>
<totfact> 0.12059305E+03</totfact>
</mgrwt>
</event>
<event>
 6      1 +2.5196620e+02 1.81674700e+02 7.54677100e-03 9.49153200e-02
       21 -1    0    0  505  502 +0.0000000000e+00 +0.0000000000e+00 +3.9210408984e+02 3.9210408984e+02 0.0000000000e+00 0.0000e+00 -1.0000e+00
       21 -1    0    0  504  503 -0.0000000000e+00 -0.0000000000e+00 -3.6040263906e+02 3.6040263906e+02 0.0000000000e+00 0.0000e+00 -1.0000e+00
        6  1    1    2  501    0 -3.1777288805e+01 +6.2025908718e+01 -1.9660083734e+02 2.7099427794e+02 1.7300000000e+02 0.0000e+00 -1.0000e+00
       -6  1    1    2    0  502 +3.4452202996e+01 -5.5797230744e+01 +2.6728191722e+02 3.2506754456e+02 1.7300000000e+02 0.0000e+00 -1.0000e+00
       21  1    1    2  504  501 -8.0592649525e+00 -2.7474549381e+01 -9.3445968383e+01 9.7734086287e+01 0.0000000000e+00 0.0000e+00 -1.0000e+00
       21  1    1    2  505  503 +5.3843507612e+00 +2.1245871407e+01 +5.4466339275e+01 5.8710820118e+01 0.0000000000e+00 0.0000e+00 -1.0000e+00
<mgrwt>
<rscale>  4 0.18167467E+03</rscale>
<asrwt>0</asrwt>
<pdfrwt beam="1">  1       21 0.60323706E-01 0.18167467E+03</pdfrwt>
<pdfrwt beam="2">  1       21 0.55446560E-01 0.18167467E+03</pdfrwt>
<totfact> 0.79166112E+03</totfact>
</mgrwt>
</event>
<event>
 6      1 +2.5196620e+02 3.32433900e+02 7.54677100e-03 9.49153200e-02
       21 -1    0    0  504  502 +0.0000000000e+00 +0.0000000000e+00 +1.6795229388e+02 1.6795229388e+02 0.0000000000e+00 0.0000e+00 -1.0000e+00
       21 -1    0    0  501  503 -0.0000000000e+00 -0.0000000000e+00 -2.1978747978e+03 2.1978747978e+03 0.0000000000e+00 0.0000e+00 -1.0000e+00
        6  1    1    2  501    0 +1.1967436813e+01 +2.8030568882e+02 -5.7113966233e+02 6.5942703358e+02 1.7300000000e+02 0.0000e+00 1.0000e+00
       -6  1    1    2    0  505 -5.0986402912e+00 -2.7089605110e+02 -1.2763868220e+03 1.3162457924e+03 1.7300000000e+02 0.0000e+00 -1.0000e+00
       21  1    1    2  504  503 +1.4849276172e+01 -2.9474744166e+01 -2.8319311680e+02 2.8510980858e+02 0.0000000000e+00 0.0000e+00 1.0000e+00
       21  1    1    2  505  502 -2.1718072694e+01 +2.0065106447e+01 +1.0079709718e+02 1.0504445715e+02 0.0000000000e+00 0.0000e+00 -1.0000e+00
<mgrwt>
<rscale>  4 0.33243391E+03</rscale>
<asrwt>0</asrwt>
<pdfrwt beam="1">  1       21 0.25838816E-01 0.33243391E+03</pdfrwt>
<pdfrwt beam="2">  1       21 0.33813457E+00 0.33243391E+03</pdfrwt>
<totfact> 0.24733348E+02</totfact>
</mgrwt>
</event>
<event>
 6      1 +2.5196620e+02 2.27480400e+02 7.54677100e-03 1.16128000e-01
       21 -1    0    0  501  502 +0.0000000000e+00 +0.0000000000e+00 +2.5876587712e+02 2.5876587712e+02 0.0000000000e+00 0.0000e+00 -1.0000e+00
       21 -1    0    0  504  503 -0.0000000000e+00 -0.0000000000e+00 -5.7983180217e+02 5.7983180217e+02 0.0000000000e+00 0.0000e+00 1.0000e+00
        6  1    1    2  501    0 +8.4926810124e+01 +1.1145469553e+02 +1.4252785402e+02 2.6434428574e+02 1.7300000000e+02 0.0000e+00 -1.0000e+00
       -6  1    1    2    0  503 -9.7545458705e+01 -1.7823918975e+02 -3.8870432609e+02 4.7149165252e+02 1.7300000000e+02 0.0000e+00 1.0000e+00
       21  1    1    2  504  505 +1.0835395726e+01 +1.8972540412e+01 -3.0333003712e+01 3.7382538764e+01 0.0000000000e+00 0.0000e+00 1.0000e+00
       21  1    1    2  505  502 +1.7832528553e+00 +4.7811953808e+01 -4.4556449264e+01 6.5379202264e+01 0.0000000000e+00 0.0000e+00 -1.0000e+00
<mgrwt>
<rscale>  4 0.22748045E+03</rscale>
<asrwt>0</asrwt>
<pdfrwt beam="1">  1       21 0.39810135E-01 0.22748045E+03</pdfrwt>
<pdfrwt beam="2">  1       21 0.89204892E-01 0.22748045E+03</pdfrwt>
<totfact> 0.63607633E+03</totfact>
</mgrwt>
</event>
<event>
 6      1 +2.5196620e+02 2.31028000e+02 7.54677100e-03 1.06301000e-01
       21 -1    0    0  505  502 +0.0000000000e+00 +0.0000000000e+00 +1.6014075457e+02 1.6014075457e+02 0.0000000000e+00 0.0000e+00 -1.0000e+00
       21 -1    0    0  502  503 -0.0000000000e+00 -0.0000000000e+00 -9.3214913807e+02 9.3214913807e+02 0.0000000000e+00 0.0000e+00 1.0000e+00
        6  1    1    2  501    0 +1.2477005853e+02 +9.6789311278e+01 -1.5725309555e+02 2.8212280011e+02 1.7300000000e+02 0.0000e+00 1.0000e+00
       -6  1    1    2    0  504 -1.1206482175e+02 -9.9192244903e+01 -8.5567896742e+01 2.4423040490e+02 1.7300000000e+02 0.0000e+00 -1.0000e+00
       21  1    1    2  504  503 +3.6009314966e+01 -2.7499931273e+01 -4.9945523931e+02 5.0150618447e+02 0.0000000000e+00 0.0000e+00 1.0000e+00
       21  1    1    2  505  501 -4.8714551742e+01 +2.9902864897e+01 -2.9732151904e+01 6.4430503159e+01 0.0000000000e+00 0.0000e+00 -1.0000e+00
<mgrwt>
<rscale>  4 0.23102801E+03</rscale>
<asrwt>0</asrwt>
<pdfrwt beam="1">  1       21 0.24637039E-01 0.23102801E+03</pdfrwt>
<pdfrwt beam="2">  1       21 0.14340756E+00 0.23102801E+03</pdfrwt>
<totfact> 0.50814721E+03</totfact>
</mgrwt>
</event>
<event>
 6      1 +2.5196620e+02 2.85162400e+02 7.54677100e-03 1.06301000e-01
       21 -1    0    0  505  502 +0.0000000000e+00 +0.0000000000e+00 +1.7058988577e+02 1.7058988577e+02 0.0000000000e+00 0.0000e+00 -1.0000e+00
       21 -1    0    0  504  503 -0.0000000000e+00 -0.0000000000e+00 -6.2834434973e+02 6.2834434973e+02 0.0000000000e+00 0.0000e+00 1.0000e+00
        6  1    1    2  501    0 -1.8574516146e+02 +4.8932011497e+01 -3.1009639583e+02 4.0371324163e+02 1.7300000000e+02 0.0000e+00 1.0000e+00
       -6  1    1    2    0  502 +2.4000635770e+02 -5.5320020254e+01 -8.9640089450e+01 3.1405047686e+02 1.7300000000e+02 0.0000e+00 -1.0000e+00
       21  1    1    2  504  501 -1.8524491733e+01 +9.3346208338e+00 -2.4299235047e+01 3.1949096449e+01 0.0000000000e+00 0.0000e+00 -1.0000e+00
       21  1    1    2  505  503 -3.5736704501e+01 -2.9466120763e+00 -3.3718743634e+01 4.9221420577e+01 0.0000000000e+00 0.0000e+00 1.0000e+00
<mgrwt>
<rscale>  4 0.28516240E+03</rscale>
<asrwt>0</asrwt>
<pdfrwt beam="1">  1       21 0.26244597E-01 0.28516240E+03</pdfrwt>
<pdfrwt beam="2">  1       21 0.96668363E-01 0.28516240E+03</pdfrwt>
<totfact> 0.11636384E+04</totfact>
</mgrwt>
</event>
<event>
 6      1 +2.5196620e+02 2.31503000e+02 7.54677100e-03 1.09711200e-01
       21 -1    0    0  505  502 +0.0000000000e+00 +0.0000000000e+00 +4.7742741131e+02 4.7742741131e+02 0.0000000000e+00 0.0000e+00 -1.0000e+00
       21 -1    0    0  504  503 -0.0000000000e+00 -0.0000000000e+00 -2.2028186548e+02 2.2028186548e+02 0.0000000000e+00 0.0000e+00 1.0000e+00
        6  1    1    2  501    0 +1.2222630294e+02 +1.2315105324e+02 +1.7247937133e+02 2.9963909054e+02 1.7300000000e+02 0.0000e+00 -1.0000e+00
       -6  1    1    2    0  503 -1.3662571197e+02 -6.0204354981e+01 -4.5399767516e+01 2.3298345096e+02 1.7300000000e+02 0.0000e+00 1.0000e+00
       21  1    1    2  504  502 -2.3989009220e+01 -4.0337765717e-01 +1.4032491299e+01 2.7794713328e+01 0.0000000000e+00 0.0000e+00 -1.0000e+00
       21  1    1    2  505  501 +3.8388418257e+01 -6.2543320605e+01 +1.1603345072e+02 1.3729202196e+02 0.0000000000e+00 0.0000e+00 -1.0000e+00
<mgrwt>
<rscale>  4 0.23150297E+03</rscale>
<asrwt>0</asrwt>
<pdfrwt beam="1">  1       21 0.73450371E-01 0.23150297E+03</pdfrwt>
<pdfrwt beam="2">  1       21 0.33889518E-01 0.23150297E+03</pdfrwt>
<totfact> 0.13640904E+04</totfact>
</mgrwt>
</event>
<event>
 6      1 +2.5196620e+02 2.34274300e+02 7.54677100e-03 1.09711200e-01
       21 -1    0    0  501  502 +0.0000000000e+00 +0.0000000000e+00 +7.8941277611e+01 7.8941277611e+01 0.0000000000e+00 0.0000e+00 -1.0000e+00
       21 -1    0    0  505  503 -0.0000000000e+00 -0.0000000000e+00 -1.2932187865e+03 1.2932187865e+03 0.0000000000e+00 0.0000e+00 -1.0000e+00
        6  1    1    2  501    0 -1.7728488334e+01 +1.9971352860e+02 -5.1388768037e+02 5.7810841616e+02 1.7300000000e+02 0.0000e+00 -1.0000e+00
       -6  1    1    2    0  503 -7.5641883435e+00 -1.3492820360e+02 -6.6217661864e+02 6.9761716676e+02 1.7300000000e+02 0.0000e+00 -1.0000e+00
       21  1    1    2  504  502 -7.7147882537e-01 -5.6535113862e+01 -1.0502078320e+01 5.7507459760e+01 0.0000000000e+00 0.0000e+00 -1.0000e+00
       21  1    1    2  505  504 +2.6064155503e+01 -8.2502111294e+00 -2.7711131570e+01 3.8927021446e+01 0.0000000000e+00 0.0000e+00 1.0000e+00
<mgrwt>
<rscale>  4 0.23427434E+03</rscale>
<asrwt>0</asrwt>
<pdfrwt beam="1">  1       21 0.12144813E-01 0.23427434E+03</pdfrwt>
<pdfrwt beam="2">  1       21 0.19895671E+00 0.23427434E+03</pdfrwt>
<totfact> 0.75706536E+03</totfact>
</mgrwt>
</event>
<event>
 6      1 +2.5196620e+02 1.94827900e+02 7.54677100e-03 1.09079000e-01
       21 -1    0    0  505  502 +0.0000000000e+00 +0.0000000000e+00 +8.6258586627e+01 8.6258586627e+01 0.0000000000e+00 0.0000e+00 1.0000e+00
       21 -1    0    0  501  503 -0.0000000000e+00 -0.0000000000e+00 -9.9917849223e+02 9.9917849223e+02 0.0000000000e+00 0.0000e+00 1.0000e+00
        6  1    1    2  501    0 -5.8507348246e+01 -3.1340496751e+01 -4.7958333741e+02 5.1413472365e+02 1.7300000000e+02 0.0000e+00 -1.0000e+00
       -6  1    1    2    0  504 +1.1722116497e+02 +4.6278291140e+01 -4.0051564331e+02 4.5411921593e+02 1.7300000000e+02 0.0000e+00 -1.0000e+00
       21  1    1    2  504  502 -3.2332110106e+01 -1.0898608610e+01 -6.6182330569e+01 7.4459693076e+01 0.0000000000e+00 0.0000e+00 -1.0000e+00
       21  1    1    2  505  503 -2.6381706621e+01 -4.0391857791e+00 +3.3361405683e+01 4.2723446200e+01 0.0000000000e+00 0.0000e+00 -1.0000e+00
<mgrwt>
<rscale>  4 0.19482794E+03</rscale>
<asrwt>0</asrwt>
<pdfrwt beam="1">  1       21 0.13270551E-01 0.19482794E+03</pdfrwt>
<pdfrwt beam="2">  1       21 0.15371978E+00 0.19482794E+03</pdfrwt>
<totfact> 0.13701355E+04</totfact>
</mgrwt>
</event>
<event>
 6      1 +2.5196620e+02 2.15161800e+02 7.54677100e-03 1.06301000e-01
       21 -1    0    0  501  502 +0.0000000000e+00 +0.0000000000e+00 +2.1379673085e+02 2.1379673085e+02 0.0000000000e+00 0.0000e+00 -1.0000e+00
       21 -1    0    0  504  503 -0.0000000000e+00 -0.0000000000e+00 -3.8290503919e+02 3.8290503919e+02 0.0000000000e+00 0.0000e+00 1.0000e+00
        6  1    1    2  501    0 +5.9992509740e+01 -1.1109684681e+02 -7.7057517195e+01 2.2761474370e+02 1.7300000000e+02 0.0000e+00 1.0000e+00
       -6  1    1    2    0  503 -1.2521088269e+02 +6.0506026761e+01 +2.3764776516e+01 2.2323196237e+02 1.7300000000e+02 0.0000e+00 -1.0000e+00
       21  1    1    2  504  505 +1.4217473239e+01 +1.4366573061e+01 -5.5053518102e+01 5.8646609639e+01 0.0000000000e+00 0.0000e+00 1.0000e+00
       21  1    1    2  505  502 +5.1000899713e+01 +3.6224246986e+01 -6.0762049555e+01 8.7208454335e+01 0.0000000000e+00 0.0000e+00 -1.0000e+00
<mgrwt>
<rscale>  4 0.21516179E+03</rscale>
<asrwt>0</asrwt>
<pdfrwt beam="1">  1       21 0.32891806E-01 0.21516179E+03</pdfrwt>
<pdfrwt beam="2">  1       21 0.58908466E-01 0.21516179E+03</pdfrwt>
<totfact> 0.23676771E+04</totfact>
</mgrwt>
</event>
<event>
 6      1 +2.5196620e+02 2.08877100e+02 7.54677100e-03 1.06301000e-01
       21 -1    0    0  505  502 +0.0000000000e+00 +0.0000000000e+00 +1.2842093010e+02 1.2842093010e+02 0.0000000000e+00 0.0000e+00 -1.0000e+00
       21 -1    0    0  504  503 -0.0000000000e+00 -0.0000000000e+00 -9.4579118214e+02 9.4579118214e+02 0.0000000000e+00 0.0000e+00 -1.0000e+00
        6  1    1    2  501    0 +9.3526092382e+01 -9.1640329729e+01 -1.0183290864e+02 2.3967482403e+02 1.7300000000e+02 0.0000e+00 1.0000e+00
       -6  1    1    2    0  502 -7.3200498382e+01 +7.3544374146e+01 -1.3479206217e+02 2.4262107896e+02 1.7300000000e+02 0.0000e+00 1.0000e+00
       21  1    1    2  504  501 -2.7442960134e+01 -7.8427330591e+00 -5.5128788132e+02 5.5202622457e+02 0.0000000000e+00 0.0000e+00 -1.0000e+00
       21  1    1    2  505  503 +7.1173661342e+00 +2.5938688642e+01 -2.9457399904e+01 3.9889984686e+01 0.0000000000e+00 0.0000e+00 1.0000e+00
<mgrwt>
<rscale>  4 0.20887711E+03</rscale>
<asrwt>0</asrwt>
<pdfrwt beam="1">  1       21 0.19757066E-01 0.20887711E+03</pdfrwt>
<pdfrwt beam="2">  1       21 0.14550633E+00 0.20887711E+03</pdfrwt>
<totfact> 0.75491646E+03</totfact>
</mgrwt>
</event>
<event>
 6      1 +2.5196620e+02 1.93993100e+02 7.54677100e-03 1.06301000e-01
       21 -1    0    0  505  502 +0.0000000000e+00 +0.0000000000e+00 +2.7606203946e+02 2.7606203946e+02 0.0000000000e+00 0.0000e+00 1.0000e+00
       21 -1    0    0  501  503 -0.0000000000e+00 -0.0000000000e+00 -2.3104514257e+02 2.3104514257e+02 0.0000000000e+00 0.0000e+00 -1.0000e+00
        6  1    1    2  501    0 -7.3560538228e+01 -2.2135071799e+01 +3.6404548642e+01 1.9275737431e+02 1.7300000000e+02 0.0000e+00 -1.0000e+00
       -6  1    1    2    0  502 +6.5383872694e+01 +8.7778199365e+01 +5.9004717827e+01 2.1305074470e+02 1.7300000000e+02 0.0000e+00 1.0000e+00
       21  1    1    2  504  503 +1.5446701147e+01 -3.3951515019e+01 -5.6999877473e+01 6.8119688640e+01 0.0000000000e+00 0.0000e+00 -1.0000e+00
       21  1    1    2  505  504 -7.2700356123e+00 -3.1691612548e+01 +6.6075079017e+00 3.3179374381e+01 0.0000000000e+00 0.0000e+00 -1.0000e+00
<mgrwt>
<rscale>  4 0.19399314E+03</rscale>
<asrwt>0</asrwt>
<pdfrwt beam="1">  1       21 0.42471083E-01 0.19399314E+03</pdfrwt>
<pdfrwt beam="2">  1       21 0.35545407E-01 0.19399314E+03</pdfrwt>
<totfact> 0.40678025E+04</totfact>
</mgrwt>
</event>
<event>
 6      1 +2.5196620e+02 2.24747800e+02 7.54677100e-03 1.09079000e-01
       21 -1    0    0  501  502 +0.0000000000e+00 +0.0000000000e+00 +7.7694529413e+01 7.7694529413e+01 0.0000000000e+00 0.0000e+00 -1.0000e+00
       21 -1    0    0  505  503 -0.0000000000e+00 -0.0000000000e+00 -1.0648796527e+03 1.0648796527e+03 0.0000000000e+00 0.0000e+00 -1.0000e+00
        6  1    1    2  501    0 -1.2833927534e+02 -7.7604644521e+01 -3.7162759911e+02 4.3649687612e+02 1.7300000000e+02 0.0000e+00 -1.0000e+00
       -6  1    1    2    0  504 +1.2150296353e+02 +6.9983781930e+01 -5.6621903733e+02 6.0843545107e+02 1.7300000000e+02 0.0000e+00 -1.0000e+00
       21  1    1    2  504  503 -1.3790527406e+01 +1.6566748082e+01 -6.6146732145e+01 6.9570295110e+01 0.0000000000e+00 0.0000e+00 -1.0000e+00
       21  1    1    2  505  502 +2.0626839216e+01 -8.9458854908e+00 +1.6808245265e+01 2.8071559845e+01 0.0000000000e+00 0.0000e+00 1.0000e+00
<mgrwt>
<rscale>  4 0.22474775E+03</rscale>
<asrwt>0</asrwt>
<pdfrwt beam="1">  1       21 0.11953005E-01 0.22474775E+03</pdfrwt>
<pdfrwt beam="2">  1       21 0.16382764E+00 0.22474775E+03</pdfrwt>
<totfact> 0.13638059E+04</totfact>
</mgrwt>
</event>
<event>
 6      1 +2.5196620e+02 2.10075600e+02 7.54677100e-03 1.06301000e-01
       21 -1    0    0  501  502 +0.0000000000e+00 +0.0000000000e+00 +3.1285076062e+02 3.1285076062e+02 0.0000000000e+00 0.0000e+00 -1.0000e+00
       21 -1    0    0  504  503 -0.0000000000e+00 -0.0000000000e+00 -4.3284403898e+02 4.3284403898e+02 0.0000000000e+00 0.0000e+00 -1.0000e+00
        6  1    1    2  501    0 +3.8636038333e+01 -9.9982649300e+01 +9.9685658916e+01 2.2661752848e+02 1.7300000000e+02 0.0000e+00 -1.0000e+00
       -6  1    1    2    0  503 -1.0300218704e+02 +6.4075224552e+01 -1.9597914054e+02 2.8818728019e+02 1.7300000000e+02 0.0000e+00 -1.0000e+00
       21  1    1    2  504  505 +5.1736649454e+01 +5.7658257078e+01 -1.1362134590e+02 1.3751714712e+02 0.0000000000e+00 0.0000e+00 -1.0000e+00
       21  1    1    2  505  502 +1.2629499252e+01 -2.1750832329e+01 +8.9921549163e+01 9.3372843816e+01 0.0000000000e+00 0.0000e+00 -1.0000e+00
<mgrwt>
<rscale>  4 0.21007562E+03</rscale>
<asrwt>0</asrwt>
<pdfrwt beam="1">  1       21 0.48130886E-01 0.21007562E+03</pdfrwt>
<pdfrwt beam="2">  1       21 0.66591390E-01 0.21007562E+03</pdfrwt>
<totfact> 0.84237799E+03</totfact>
</mgrwt>
</event>
<event>
 6      1 +2.5196620e+02 1.82336200e+02 7.54677100e-03 1.09711200e-01
       21 -1    0    0  505  502 +0.0000000000e+00 +0.0000000000e+00 +6.1701467583e+02 6.1701467583e+02 0.0000000000e+00 0.0000e+00 -1.0000e+00
       21 -1    0    0  504  503 -0.0000000000e+00 -0.0000000000e+00 -2.9259936711e+02 2.9259936711e+02 0.0000000000e+00 0.0000e+00 -1.0000e+00
        6  1    1    2  501    0 -2.8557694877e+01 -4.2704099414e+01 +7.1193913032e+01 1.9400194663e+02 1.7300000000e+02 0.0000e+00 -1.0000e+00
       -6  1    1    2    0  503 -6.2059652340e+00 +6.1732368659e+01 -1.9123502763e+02 2.6523430234e+02 1.7300000000e+02 0.0000e+00 -1.0000e+00
       21  1    1    2  504  502 +1.8942864251e+01 +2.1575518224e+01 +1.5127601625e+02 1.5397651829e+02 0.0000000000e+00 0.0000e+00 -1.0000e+00
       21  1    1    2  505  501 +1.5820795860e+01 -4.0603787469e+01 +2.9318040706e+02 2.9640127568e+02 0.0000000000e+00 0.0000e+00 -1.0000e+00
<mgrwt>
<rscale>  4 0.18233619E+03</rscale>
<asrwt>0</asrwt>
<pdfrwt beam="1">  1       21 0.94925334E-01 0.18233619E+03</pdfrwt>
<pdfrwt beam="2">  1       21 0.45015288E-01 0.18233619E+03</pdfrwt>
<totfact> 0.44317964E+03</totfact>
</mgrwt>
</event>
<event>
 6      1 +2.5196620e+02 2.44406900e+02 7.54677100e-03 1.16128000e-01
       21 -1    0    0  501  502 +0.0000000000e+00 +0.0000000000e+00 +4.0030421486e+02 4.0030421486e+02 0.0000000000e+00 0.0000e+00 -1.0000e+00
       21 -1    0    0  502  503 -0.0000000000e+00 -0.0000000000e+00 -6.1236637950e+02 6.1236637950e+02 0.0000000000e+00 0.0000e+00 1.0000e+00
        6  1    1    2  501    0 -1.6252238247e+02 +2.2878198852e+01 -3.0523865732e+01 2.4041140399e+02 1.7300000000e+02 0.0000e+00 1.0000e+00
       -6  1    1    2    0  505 +1.7624732280e+02 -3.6174458857e+00 +2.3731961644e+02 3.4252854634e+02 1.7300000000e+02 0.0000e+00 -1.0000e+00
       21  1    1    2  504  503 -3.8548412671e+01 -2.3392963091e+01 -3.8454075260e+02 3.8717541406e+02 0.0000000000e+00 0.0000e+00 1.0000e+00
       21  1    1    2  505  504 +2.4823472338e+01 +4.1322101246e+00 -3.4317162744e+01 4.2555229975e+01 0.0000000000e+00 0.0000e+00 1.0000e+00
<mgrwt>
<rscale>  4 0.24440692E+03</rscale>
<asrwt>0</asrwt>
<pdfrwt beam="1">  1       21 0.61585264E-01 0.24440692E+03</pdfrwt>
<pdfrwt beam="2">  1       21 0.94210212E-01 0.24440692E+03</pdfrwt>
<totfact> 0.22188449E+03</totfact>
</mgrwt>
</event>
<event>
 6      1 +2.5196620e+02 1.81877600e+02 7.54677100e-03 1.06301000e-01
       21 -1    0    0  501  502 +0.0000000000e+00 +0.0000000000e+00 +6.4356070390e+02 6.4356070390e+02 0.0000000000e+00 0.0000e+00 1.0000e+00
       21 -1    0    0  504  503 -0.0000000000e+00 -0.0000000000e+00 -1.1746577923e+02 1.1746577923e+02 0.0000000000e+00 0.0000e+00 1.0000e+00
        6  1    1    2  501    0 -1.8996544480e+01 -1.9673609025e+01 +2.6018221195e+02 3.1364263583e+02 1.7300000000e+02 0.0000e+00 1.0000e+00
       -6  1    1    2    0  503 +9.9106872473e+01 +2.0842863160e+01 +1.0532085084e+02 2.2644663552e+02 1.7300000000e+02 0.0000e+00 1.0000e+00
       21  1    1    2  504  505 -5.1260494371e+01 -1.3382341200e+01 -4.2462461125e+00 5.3148433139e+01 0.0000000000e+00 0.0000e+00 1.0000e+00
       21  1    1    2  505  502 -2.8849833622e+01 +1.2213087064e+01 +1.6483810799e+02 1.6778877865e+02 0.0000000000e+00 0.0000e+00 1.0000e+00
<mgrwt>
<rscale>  4 0.18187763E+03</rscale>
<asrwt>0</asrwt>
<pdfrwt beam="1">  1       21 0.99009337E-01 0.18187763E+03</pdfrwt>
<pdfrwt beam="2">  1       21 0.18071659E-01 0.18187763E+03</pdfrwt>
<totfact> 0.23576374E+04</totfact>
</mgrwt>
</event>
<event>
 6      1 +2.5196620e+02 3.02793000e+02 7.54677100e-03 1.16128000e-01
       21 -1    0    0  501  502 +0.0000000000e+00 +0.0000000000e+00 +2.3752017197e+02 2.3752017197e+02 0.0000000000e+00 0.0000e+00 -1.0000e+00
       21 -1    0    0  502  503 -0.0000000000e+00 -0.0000000000e+00 -9.9554332353e+02 9.9554332353e+02 0.0000000000e+00 0.0000e+00 1.0000e+00
        6  1    1    2  501    0 +2.5294486976e+02 -6.3758453405e+01 +2.9796464894e+01 3.1442499398e+02 1.7300000000e+02 0.0000e+00 -1.0000e+00
       -6  1    1    2    0  504 -1.9565836224e+02 +1.1480270272e+02 -2.6295537699e+02 3.8799018744e+02 1.7300000000e+02 0.0000e+00 1.0000e+00
       21  1    1    2  504  505 -3.6816158060e+01 -4.0674777507e+01 -3.4706548423e+02 3.5137489575e+02 0.0000000000e+00 0.0000e+00 1.0000e+00
       21  1    1    2  505  503 -2.0470349464e+01 -1.0369471808e+01 -1.7779875524e+02 1.7927341832e+02 0.0000000000e+00 0.0000e+00 1.0000e+00
<mgrwt>
<rscale>  4 0.30279303E+03</rscale>
<asrwt>0</asrwt>
<pdfrwt beam="1">  1       21 0.36541565E-01 0.30279303E+03</pdfrwt>
<pdfrwt beam="2">  1       21 0.15316051E+00 0.30279303E+03</pdfrwt>
<totfact> 0.18757609E+03</totfact>
</mgrwt>
</event>
<event>
 6      1 +2.5196620e+02 2.01487100e+02 7.54677100e-03 1.06301000e-01
       21 -1    0    0  504  502 +0.0000000000e+00 +0.0000000000e+00 +6.6396845684e+01 6.6396845684e+01 0.0000000000e+00 0.0000e+00 -1.0000e+00
       21 -1    0    0  501  503 -0.0000000000e+00 -0.0000000000e+00 -1.6712742137e+03 1.6712742137e+03 0.0000000000e+00 0.0000e+00 -1.0000e+00
        6  1    1    2  501    0 -2.7480192667e+01 -7.8726961751e+01 -8.4661069362e+02 8.6811967035e+02 1.7300000000e+02 0.0000e+00 -1.0000e+00
       -6  1    1    2    0  505 +1.5068045096e+02 +5.0605598931e+01 -5.9199270635e+02 6.3690649966e+02 1.7300000000e+02 0.0000e+00 -1.0000e+00
       21  1    1    2  504  503 -4.4035873879e+01 +3.3888820723e+01 -1.3735127640e+02 1.4816539234e+02 0.0000000000e+00 0.0000e+00 -1.0000e+00
       21  1    1    2  505  502 -7.9164384410e+01 -5.7674579026e+00 -2.8922691675e+01 8.4479497060e+01 0.0000000000e+00 0.0000e+00 -1.0000e+00
<mgrwt>
<rscale>  4 0.20148713E+03</rscale>
<asrwt>0</asrwt>
<pdfrwt beam="1">  1       21 0.10214899E-01 0.20148713E+03</pdfrwt>
<pdfrwt beam="2">  1       21 0.25711911E+00 0.20148713E+03</pdfrwt>
<totfact> 0.46769927E+03</totfact>
</mgrwt>
</event>
<event>
 6      1 +2.5196620e+02 1.91459000e+02 7.54677100e-03 1.16321900e-01
       21 -1    0    0  503  502 +0.0000000000e+00 +0.0000000000e+00 +6.9693657462e+01 6.9693657462e+01 0.0000000000e+00 0.0000e+00 1.0000e+00
       21 -1    0    0  505  503 -0.0000000000e+00 -0.0000000000e+00 -1.9501683598e+03 1.9501683598e+03 0.0000000000e+00 0.0000e+00 1.0000e+00
        6  1    1    2  501    0 -5.3850653642e+00 -6.0287922097e+01 -1.9646590155e+02 2.6868472780e+02 1.7300000000e+02 0.0000e+00 1.0000e+00
       -6  1    1    2    0  502 -9.5944700936e+01 +1.0941910197e+02 -4.3043815937e+02 4.8619330986e+02 1.7300000000e+02 0.0000e+00 1.0000e+00
       21  1    1    2  504  501 -1.3052788977e+01 -4.1597862331e+01 -1.7541666866e+02 1.8075332664e+02 0.0000000000e+00 0.0000e+00 -1.0000e+00
       21  1    1    2  505  504 +1.1438255528e+02 -7.5333175467e+00 -1.0781539728e+03 1.0842306530e+03 0.0000000000e+00 0.0000e+00 1.0000e+00
<mgrwt>
<rscale>  4 0.19145901E+03</rscale>
<asrwt>0</asrwt>
<pdfrwt beam="1">  1       21 0.10722099E-01 0.19145901E+03</pdfrwt>
<pdfrwt beam="2">  1       21 0.30002595E+00 0.19145901E+03</pdfrwt>
<totfact> 0.24510250E+03</totfact>
</mgrwt>
</event>
<event>
 6      1 +2.5196620e+02 2.42190100e+02 7.54677100e-03 1.09711200e-01
       21 -1    0    0  505  502 +0.0000000000e+00 +0.0000000000e+00 +2.8124172173e+02 2.8124172173e+02 0.0000000000e+00 0.0000e+00 -1.0000e+00
       21 -1    0    0  504  503 -0.0000000000e+00 -0.0000000000e+00 -8.2749695771e+02 8.2749695771e+02 0.0000000000e+00 0.0000e+00 -1.0000e+00
        6  1    1    2  501    0 -8.2448543879e+01 +1.6510462375e+02 -5.9579235352e+02 6.4726719961e+02 1.7300000000e+02 0.0000e+00 -1.0000e+00
       -6  1    1    2    0  503 +1.2515547330e+02 -7.6255809988e+01 -1.1651521186e+02 2.5491888053e+02 1.7300000000e+02 0.0000e+00 -1.0000e+00
       21  1    1    2  504  502 +1.1378102849e+00 -2.3433660335e+01 +1.0309356801e+02 1.0572944157e+02 0.0000000000e+00 0.0000e+00 -1.0000e+00
       21  1    1    2  505  501 -4.3844739707e+01 -6.5415153427e+01 +6.2958761400e+01 1.0082315773e+02 0.0000000000e+00 0.0000e+00 -1.0000e+00
<mgrwt>
<rscale>  4 0.24219015E+03</rscale>
<asrwt>0</asrwt>
<pdfrwt beam="1">  1       21 0.43267958E-01 0.24219015E+03</pdfrwt>
<pdfrwt beam="2">  1       21 0.12730722E+00 0.24219015E+03</pdfrwt>
<totfact> 0.22449105E+03</totfact>
</mgrwt>
</event>
<event>
 6      1 +2.5196620e+02 1.78079100e+02 7.54677100e-03 9.49153200e-02
       21 -1    0    0  505  502 +0.0000000000e+00 +0.0000000000e+00 +2.1047481088e+02 2.1047481088e+02 0.0000000000e+00 0.0000e+00 1.0000e+00
       21 -1    0    0  501  503 -0.0000000000e+00 -0.0000000000e+00 -4.7422603806e+02 4.7422603806e+02 0.0000000000e+00 0.0000e+00 1.0000e+00
        6  1    1    2  501    0 -2.0066789958e+01 +4.4217022255e+00 -2.4729054803e+02 3.0249602089e+02 1.7300000000e+02 0.0000e+00 -1.0000e+00
       -6  1    1    2    0  502 -3.8829626187e+01 -6.5351691641e+01 +9.9596182921e+01 2.1360473572e+02 1.7300000000e+02 0.0000e+00 1.0000e+00
       21  1    1    2  504  503 +3.7273921307e+01 +3.8826126285e+01 -1.2526397095e+02 1.3633735992e+02 0.0000000000e+00 0.0000e+00 1.0000e+00
       21  1    1    2  505  504 +2.1622494838e+01 +2.2103863131e+01 +9.2071088769e+00 3.2262732405e+01 0.0000000000e+00 0.0000e+00 -1.0000e+00
<mgrwt>
<rscale>  4 0.17807912E+03</rscale>
<asrwt>0</asrwt>
<pdfrwt beam="1">  1       21 0.32380740E-01 0.17807912E+03</pdfrwt>
<pdfrwt beam="2">  1       21 0.72957852E-01 0.17807912E+03</pdfrwt>
<totfact> 0.15660001E+04</totfact>
</mgrwt>
</event>
<event>
 6      1 +2.5196620e+02 4.50998500e+02 7.54677100e-03 9.49153200e-02
       21 -1    0    0  503  502 +0.0000000000e+00 +0.0000000000e+00 +1.2803405815e+03 1.2803405815e+03 0.0000000000e+00 0.0000e+00 -1.0000e+00
       21 -1    0    0  504  503 -0.0000000000e+00 -0.0000000000e+00 -1.2936391228e+03 1.2936391228e+03 0.0000000000e+00 0.0000e+00 1.0000e+00
        6  1    1    2  501    0 -3.1484459195e+02 +2.5555800286e+02 +5.1390113097e+02 6.7709702578e+02 1.7300000000e+02 0.0000e+00 -1.0000e+00
       -6  1    1    2    0  505 +3.2467411913e+02 -2.9256112194e+02 +2.7388952275e+02 5.4401265093e+02 1.7300000000e+02 0.0000e+00 -1.0000e+00
       21  1    1    2  504  501 -4.0445039816e+01 +6.7633106546e+00 -1.0749083012e+03 1.0756901969e+03 0.0000000000e+00 0.0000e+00 1.0000e+00
       21  1    1    2  505  502 +3.0615512629e+01 +3.0239808420e+01 +2.7381910624e+02 2.7717983074e+02 0.0000000000e+00 0.0000e+00 1.0000e+00
<mgrwt>
<rscale>  4 0.45099853E+03</rscale>
<asrwt>0</asrwt>
<pdfrwt beam="1">  1       21 0.19697547E+00 0.45099853E+03</pdfrwt>
<pdfrwt beam="2">  1       21 0.19902140E+00 0.45099853E+03</pdfrwt>
<totfact> 0.14377900E+01</totfact>
</mgrwt>
</event>
<event>
 6      1 +2.5196620e+02 2.03800000e+02 7.54677100e-03 9.49153200e-02
       21 -1    0    0  505  502 +0.0000000000e+00 +0.0000000000e+00 +1.5442909994e+03 1.5442909994e+03 0.0000000000e+00 0.0000e+00 1.0000e+00
       21 -1    0    0  504  503 -0.0000000000e+00 -0.0000000000e+00 -2.0410219607e+02 2.0410219607e+02 0.0000000000e+00 0.0000e+00 1.0000e+00
        6  1    1    2  501    0 +3.0352616933e+01 -1.4608478827e+02 +1.0070495527e+03 1.0326373266e+03 1.7300000000e+02 0.0000e+00 1.0000e+00
       -6  1    1    2    0  502 -7.9710577149e+01 +1.0985760451e+01 +3.9535082130e+02 4.3898261348e+02 1.7300000000e+02 0.0000e+00 -1.0000e+00
       21  1    1    2  504  501 +2.3087336431e+01 +2.1269421147e+00 -1.2518671497e+02 1.2731560231e+02 0.0000000000e+00 0.0000e+00 1.0000e+00
       21  1    1    2  505  503 +2.6270623784e+01 +1.3297208570e+02 +6.2975144267e+01 1.4945765302e+02 0.0000000000e+00 0.0000e+00 1.0000e+00
<mgrwt>
<rscale>  4 0.20380004E+03</rscale>
<asrwt>0</asrwt>
<pdfrwt beam="1">  1       21 0.23758322E+00 0.20380004E+03</pdfrwt>
<pdfrwt beam="2">  1       21 0.31400339E-01 0.20380004E+03</pdfrwt>
<totfact> 0.75730960E+02</totfact>
</mgrwt>
</event>
<event>
 6      1 +2.5196620e+02 1.95298300e+02 7.54677100e-03 1.12691600e-01
       21 -1    0    0  505  502 +0.0000000000e+00 +0.0000000000e+00 +6.7045314620e+02 6.7045314620e+02 0.0000000000e+00 0.0000e+00 -1.0000e+00
       21 -1    0    0  501  503 -0.0000000000e+00 -0.0000000000e+00 -2.5602304262e+02 2.5602304262e+02 0.0000000000e+00 0.0000e+00 1.0000e+00
        6  1    1    2  501    0 -1.0185138349e+02 -5.8088885166e+01 -1.3837276907e+02 2.5064725436e+02 1.7300000000e+02 0.0000e+00 1.0000e+00
       -6  1    1    2    0  502 -4.4915688765e+01 +6.2003139421e+01 +1.4692122654e+02 2.3953424641e+02 1.7300000000e+02 0.0000e+00 -1.0000e+00
       21  1    1    2  504  503 +1.2147416823e+02 -1.3449786564e+01 +2.5218787995e+02 2.8024203307e+02 0.0000000000e+00 0.0000e+00 -1.0000e+00
       21  1    1    2  505  504 +2.5292904033e+01 +9.5355323094e+00 +1.5369376616e+02 1.5605265498e+02 0.0000000000e+00 0.0000e+00 1.0000e+00
<mgrwt>
<rscale>  4 0.19529831E+03</rscale>
<asrwt>0</asrwt>
<pdfrwt beam="1">  1       21 0.10314664E+00 0.19529831E+03</pdfrwt>
<pdfrwt beam="2">  1       21 0.39388161E-01 0.19529831E+03</pdfrwt>
<totfact> 0.47280235E+03</totfact>
</mgrwt>
</event>
<event>
 6      1 +2.5196620e+02 2.34924800e+02 7.54677100e-03 9.49153200e-02
       21 -1    0    0  505  502 +0.0000000000e+00 +0.0000000000e+00 +1.1013918584e+03 1.1013918584e+03 0.0000000000e+00 0.0000e+00 1.0000e+00
       21 -1    0    0  504  503 -0.0000000000e+00 -0.0000000000e+00 -1.4334308737e+03 1.4334308737e+03 0.0000000000e+00 0.0000e+00 1.0000e+00
        6  1    1    2  501    0 -2.0804420100e+02 +8.1701383340e+00 +1.2982965680e+02 3.0022305127e+02 1.7300000000e+02 0.0000e+00 -1.0000e+00
       -6  1    1    2    0  502 +1.3368713635e+02 -1.2599415695e+02 +7.1860536782e+02 7.6162290713e+02 1.7300000000e+02 0.0000e+00 1.0000e+00
       21  1    1    2  504  501 +8.5872499151e+01 +6.2741108308e+01 -1.3190917016e+03 1.3233719998e+03 0.0000000000e+00 0.0000e+00 1.0000e+00
       21  1    1    2  505  503 -1.1515434506e+01 +5.5082910310e+01 +1.3861766168e+02 1.4960477389e+02 0.0000000000e+00 0.0000e+00 1.0000e+00
<mgrwt>
<rscale>  4 0.23492482E+03</rscale>
<asrwt>0</asrwt>
<pdfrwt beam="1">  1       21 0.16944490E+00 0.23492482E+03</pdfrwt>
<pdfrwt beam="2">  1       21 0.22052783E+00 0.23492482E+03</pdfrwt>
<totfact> 0.20083681E+01</totfact>
</mgrwt>
</event>
<event>
 6      1 +2.5196620e+02 3.31364800e+02 7.54677100e-03 9.49153200e-02
       21 -1    0    0  503  502 +0.0000000000e+00 +0.0000000000e+00 +3.1912868094e+02 3.1912868094e+02 0.0000000000e+00 0.0000e+00 1.0000e+00
       21 -1    0    0  504  503 -0.0000000000e+00 -0.0000000000e+00 -1.4103473357e+03 1.4103473357e+03 0.0000000000e+00 0.0000e+00 -1.0000e+00
        6  1    1    2  501    0 +3.2328517433e+02 +1.8540302745e+01 -1.8066354555e+02 4.0917644538e+02 1.7300000000e+02 0.0000e+00 1.0000e+00
       -6  1    1    2    0  505 -4.2144074739e+01 +8.3354688233e+01 -1.4892476113e+01 1.9716722073e+02 1.7300000000e+02 0.0000e+00 1.0000e+00
       21  1    1    2  504  501 -2.5185139687e+02 -1.2020595217e+02 -9.8688815273e+02 1.0255860876e+03 0.0000000000e+00 0.0000e+00 -1.0000e+00
       21  1    1    2  505  502 -2.9289702713e+01 +1.8310961191e+01 +9.1225519627e+01 9.7546262953e+01 0.0000000000e+00 0.0000e+00 1.0000e+00
<mgrwt>
<rscale>  4 0.29305194E+03</rscale>
<asrwt>0</asrwt>
<pdfrwt beam="1">  1       21 0.49096720E-01 0.33136476E+03</pdfrwt>
<pdfrwt beam="2">  1       21 0.21697651E+00 0.33136476E+03</pdfrwt>
<totfact> 0.36344094E+02</totfact>
</mgrwt>
</event>
<event>
 6      1 +2.5196620e+02 1.97232500e+02 7.54677100e-03 1.09711200e-01
       21 -1    0    0  504  502 +0.0000000000e+00 +0.0000000000e+00 +7.2808174476e+02 7.2808174476e+02 0.0000000000e+00 0.0000e+00 1.0000e+00
       21 -1    0    0  502  503 -0.0000000000e+00 -0.0000000000e+00 -2.9980013326e+02 2.9980013326e+02 0.0000000000e+00 0.0000e+00 1.0000e+00
        6  1    1    2  501    0 +2.8851212820e+01 +1.1658114529e+02 -1.9955802162e+02 2.9013093581e+02 1.7300000000e+02 0.0000e+00 1.0000e+00
       -6  1    1    2    0  503 +1.9081305398e+01 -4.1284878668e+00 +1.2452378244e+02 2.1404745507e+02 1.7300000000e+02 0.0000e+00 1.0000e+00
       21  1    1    2  504  505 -1.2263949872e+01 -3.4240407162e+01 +3.1013366166e+02 3.1225902396e+02 0.0000000000e+00 0.0000e+00 -1.0000e+00
       21  1    1    2  505  501 -3.5668568347e+01 -7.8212250256e+01 +1.9318218902e+02 2.1144446319e+02 0.0000000000e+00 0.0000e+00 1.0000e+00
<mgrwt>
<rscale>  4 0.19723247E+03</rscale>
<asrwt>0</asrwt>
<pdfrwt beam="1">  1       21 0.11201258E+00 0.19723247E+03</pdfrwt>
<pdfrwt beam="2">  1       21 0.46123098E-01 0.19723247E+03</pdfrwt>
<totfact> 0.28040904E+03</totfact>
</mgrwt>
</event>
<event>
 6      1 +2.5196620e+02 2.77874200e+02 7.54677100e-03 9.49153200e-02
       21 -1    0    0  504  502 +0.0000000000e+00 +0.0000000000e+00 +6.3542705543e+01 6.3542705543e+01 0.0000000000e+00 0.0000e+00 1.0000e+00
       21 -1    0    0  501  503 -0.0000000000e+00 -0.0000000000e+00 -2.2661027807e+03 2.2661027807e+03 0.0000000000e+00 0.0000e+00 -1.0000e+00
        6  1    1    2  501    0 +1.9282220647e+02 +2.6313679173e+00 -7.5947183609e+02 8.0244239496e+02 1.7300000000e+02 0.0000e+00 1.0000e+00
       -6  1    1    2    0  505 +5.0457371669e+01 -1.1674467780e+02 -6.2271103308e+02 6.5869059267e+02 1.7300000000e+02 0.0000e+00 -1.0000e+00
       21  1    1    2  504  503 -2.2389533989e+02 +1.3100036366e+02 -7.4857906906e+02 7.9225049141e+02 0.0000000000e+00 0.0000e+00 -1.0000e+00
       21  1    1    2  505  502 -1.9384238256e+01 -1.6887053769e+01 -7.1798136915e+01 7.6262007201e+01 0.0000000000e+00 0.0000e+00 -1.0000e+00
<mgrwt>
<rscale>  4 0.26097690E+03</rscale>
<asrwt>0</asrwt>
<pdfrwt beam="1">  1       21 0.97758015E-02 0.27787421E+03</pdfrwt>
<pdfrwt beam="2">  1       21 0.34863117E+00 0.27787421E+03</pdfrwt>
<totfact> 0.13613658E+03</totfact>
</mgrwt>
</event>
<event>
 6      1 +2.5196620e+02 3.16616400e+02 7.54677100e-03 1.13287100e-01
       21 -1    0    0  504  502 +0.0000000000e+00 +0.0000000000e+00 +3.7028884524e+02 3.7028884524e+02 0.0000000000e+00 0.0000e+00 1.0000e+00
       21 -1    0    0  505  503 -0.0000000000e+00 -0.0000000000e+00 -4.0131388975e+02 4.0131388975e+02 0.0000000000e+00 0.0000e+00 -1.0000e+00
        6  1    1    2  501    0 +2.4768267079e+02 +4.0349791691e+01 +9.1841523871e+01 3.1833736288e+02 1.7300000000e+02 0.0000e+00 -1.0000e+00
       -6  1    1    2    0  503 -2.9125696665e+02 -4.4020356490e+01 -1.0220492612e+02 3.5657153467e+02 1.7300000000e+02 0.0000e+00 1.0000e+00
       21  1    1    2  504  501 +4.1224466564e+01 +3.2150232545e+01 -3.6746539735e+01 6.3901504510e+01 0.0000000000e+00 0.0000e+00 -1.0000e+00
       21  1    1    2  505  502 +2.3498292967e+00 -2.8479667745e+01 +1.6084897470e+01 3.2792332933e+01 0.0000000000e+00 0.0000e+00 1.0000e+00
<mgrwt>
<rscale>  4 0.31661644E+03</rscale>
<asrwt>0</asrwt>
<pdfrwt beam="1">  1       21 0.56967515E-01 0.31661644E+03</pdfrwt>
<pdfrwt beam="2">  1       21 0.61740598E-01 0.31661644E+03</pdfrwt>
<totfact> 0.65595726E+03</totfact>
</mgrwt>
</event>
<event>
 6      1 +2.5196620e+02 3.59543400e+02 7.54677100e-03 1.16128000e-01
       21 -1    0    0  501  502 +0.0000000000e+00 +0.0000000000e+00 +3.1508658216e+02 3.1508658216e+02 0.0000000000e+00 0.0000e+00 -1.0000e+00
       21 -1    0    0  504  503 -0.0000000000e+00 -0.0000000000e+00 -1.5387468584e+03 1.5387468584e+03 0.0000000000e+00 0.0000e+00 -1.0000e+00
        6  1    1    2  501    0 +2.3307160636e+02 -1.0357872164e+02 +1.1443267071e+02 3.2874726067e+02 1.7300000000e+02 0.0000e+00 -1.0000e+00
       -6  1    1    2    0  503 -3.2947565886e+02 -1.8961797623e+02 -7.2113808471e+02 8.3335366076e+02 1.7300000000e+02 0.0000e+00 -1.0000e+00
       21  1    1    2  504  505 +3.2333975730e+01 +4.1200111196e+01 -9.0299303407e+01 1.0438821459e+02 0.0000000000e+00 0.0000e+00 -1.0000e+00
       21  1    1    2  505  502 +6.4070076763e+01 +2.5199658667e+02 -5.2665555885e+02 5.8734430456e+02 0.0000000000e+00 0.0000e+00 -1.0000e+00
<mgrwt>
<rscale>  4 0.34595331E+03</rscale>
<asrwt>0</asrwt>
<pdfrwt beam="1">  1       21 0.48474859E-01 0.35954343E+03</pdfrwt>
<pdfrwt beam="2">  1       21 0.23673029E+00 0.35954343E+03</pdfrwt>
<totfact> 0.27538258E+02</totfact>
</mgrwt>
</event>
<event>
 6      1 +2.5196620e+02 2.68157000e+02 7.54677100e-03 1.14954000e-01
       21 -1    0    0  501  502 +0.0000000000e+00 +0.0000000000e+00 +4.0541744099e+02 4.0541744099e+02 0.0000000000e+00 0.0000e+00 -1.0000e+00
       21 -1    0    0  504  503 -0.0000000000e+00 -0.0000000000e+00 -5.4257405329e+02 5.4257405329e+02 0.0000000000e+00 0.0000e+00 -1.0000e+00
        6  1    1    2  501    0 +2.0278020187e+02 -1.0154457827e+02 -3.1520642750e+01 2.8697327849e+02 1.7300000000e+02 0.0000e+00 -1.0000e+00
       -6  1    1    2    0  503 -3.8138634243e+01 -1.0313747746e+01 -3.1439795995e+02 3.6102078339e+02 1.7300000000e+02 0.0000e+00 -1.0000e+00
       21  1    1    2  504  505 -9.4470839515e+01 +8.9696978923e+01 +8.3543647458e+01 1.5475732156e+02 0.0000000000e+00 0.0000e+00 -1.0000e+00
       21  1    1    2  505  502 -7.0170728112e+01 +2.2161347088e+01 +1.2521834294e+02 1.4524011084e+02 0.0000000000e+00 0.0000e+00 -1.0000e+00
<mgrwt>
<rscale>  4 0.24185956E+03</rscale>
<asrwt>0</asrwt>
<pdfrwt beam="1">  1       21 0.62371914E-01 0.26815696E+03</pdfrwt>
<pdfrwt beam="2">  1       21 0.83472931E-01 0.26815696E+03</pdfrwt>
<totfact> 0.28148872E+03</totfact>
</mgrwt>
</event>
<event>
 6      1 +2.5196620e+02 1.94249500e+02 7.54677100e-03 1.11396600e-01
       21 -1    0    0  503  502 +0.0000000000e+00 +0.0000000000e+00 +1.1706812041e+02 1.1706812041e+02 0.0000000000e+00 0.0000e+00 -1.0000e+00
       21 -1    0    0  501  503 -0.0000000000e+00 -0.0000000000e+00 -1.0254445777e+03 1.0254445777e+03 0.0000000000e+00 0.0000e+00 1.0000e+00
        6  1    1    2  501    0 +5.7007836032e+01 -7.2229530813e+01 -6.5732837743e+02 6.8591296406e+02 1.7300000000e+02 0.0000e+00 -1.0000e+00
       -6  1    1    2    0  505 -1.6745347013e+01 +8.6078284049e+01 -3.0187930150e+02 3.5881748885e+02 1.7300000000e+02 0.0000e+00 1.0000e+00
       21  1    1    2  504  502 -3.7073742245e+01 +7.7400417126e+00 +6.2466736062e+01 7.3051103510e+01 0.0000000000e+00 0.0000e+00 -1.0000e+00
       21  1    1    2  505  504 -3.1887467745e+00 -2.1588794949e+01 -1.1635514416e+01 2.4731141686e+01 0.0000000000e+00 0.0000e+00 -1.0000e+00
<mgrwt>
<rscale>  4 0.19424948E+03</rscale>
<asrwt>0</asrwt>
<pdfrwt beam="1">  1       21 0.18010479E-01 0.19424948E+03</pdfrwt>
<pdfrwt beam="2">  1       21 0.15776071E+00 0.19424948E+03</pdfrwt>
<totfact> 0.73225996E+03</totfact>
</mgrwt>
</event>
<event>
 6      1 +2.5196620e+02 2.46539900e+02 7.54677100e-03 1.06301000e-01
       21 -1    0    0  501  502 +0.0000000000e+00 +0.0000000000e+00 +5.1432649054e+02 5.1432649054e+02 0.0000000000e+00 0.0000e+00 -1.0000e+00
       21 -1    0    0  505  503 -0.0000000000e+00 -0.0000000000e+00 -1.0787804553e+03 1.0787804553e+03 0.0000000000e+00 0.0000e+00 1.0000e+00
        6  1    1    2  501    0 -1.5026181213e+02 -1.4749437975e+02 -7.1179451603e+02 7.6217690682e+02 1.7300000000e+02 0.0000e+00 1.0000e+00
       -6  1    1    2    0  504 +1.2763447754e+02 +6.0314199624e+01 -2.2689782770e+02 3.1833942066e+02 1.7300000000e+02 0.0000e+00 -1.0000e+00
       21  1    1    2  504  503 +2.6808146179e+01 +5.6749477205e+00 -6.2525868860e+01 6.8266873444e+01 0.0000000000e+00 0.0000e+00 1.0000e+00
       21  1    1    2  505  502 -4.1808115849e+00 +8.1505232403e+01 +4.3676424784e+02 4.4432374490e+02 0.0000000000e+00 0.0000e+00 -1.0000e+00
<mgrwt>
<rscale>  4 0.24653988E+03</rscale>
<asrwt>0</asrwt>
<pdfrwt beam="1">  1       21 0.79127153E-01 0.24653988E+03</pdfrwt>
<pdfrwt beam="2">  1       21 0.16596622E+00 0.24653988E+03</pdfrwt>
<totfact> 0.30282325E+02</totfact>
</mgrwt>
</event>
<event>
 6      1 +2.5196620e+02 2.90559100e+02 7.54677100e-03 1.16558800e-01
       21 -1    0    0  503  502 +0.0000000000e+00 +0.0000000000e+00 +6.1768058041e+02 6.1768058041e+02 0.0000000000e+00 0.0000e+00 -1.0000e+00
       21 -1    0    0  504  503 -0.0000000000e+00 -0.0000000000e+00 -2.6196414573e+02 2.6196414573e+02 0.0000000000e+00 0.0000e+00 1.0000e+00
        6  1    1    2  501    0 +1.3820574605e+02 -1.6085399444e+02 +2.2457901800e+01 2.7460552274e+02 1.7300000000e+02 0.0000e+00 -1.0000e+00
       -6  1    1    2    0  505 -9.9247618777e+01 +2.6064742784e+02 +1.4357525020e+02 3.5823180197e+02 1.7300000000e+02 0.0000e+00 1.0000e+00
       21  1    1    2  504  501 -5.5572685957e+00 -8.5314174245e+01 +4.3048576410e+01 9.5721322036e+01 0.0000000000e+00 0.0000e+00 -1.0000e+00
       21  1    1    2  505  502 -3.3400858672e+01 -1.4479259158e+01 +1.4663470626e+02 1.5108607939e+02 0.0000000000e+00 0.0000e+00 1.0000e+00
<mgrwt>
<rscale>  4 0.29055909E+03</rscale>
<asrwt>0</asrwt>
<pdfrwt beam="1">  1       21 0.95027781E-01 0.29055909E+03</pdfrwt>
<pdfrwt beam="2">  1       21 0.40302177E-01 0.29055909E+03</pdfrwt>
<totfact> 0.51532828E+03</totfact>
</mgrwt>
</event>
<event>
 6      1 +2.5196620e+02 1.97172000e+02 7.54677100e-03 9.49153200e-02
       21 -1    0    0  504  502 +0.0000000000e+00 +0.0000000000e+00 +3.2633574931e+02 3.2633574931e+02 0.0000000000e+00 0.0000e+00 1.0000e+00
       21 -1    0    0  501  503 -0.0000000000e+00 -0.0000000000e+00 -2.2642838472e+02 2.2642838472e+02 0.0000000000e+00 0.0000e+00 1.0000e+00
        6  1    1    2  501    0 -8.6532636109e+01 +9.9455030603e+01 +3.7816658812e+01 2.2076752458e+02 1.7300000000e+02 0.0000e+00 1.0000e+00
       -6  1    1    2    0  505 +8.1265763750e+01 +4.7406305068e+00 +5.9607894759e+01 2.0027156327e+02 1.7300000000e+02 0.0000e+00 1.0000e+00
       21  1    1    2  504  503 +1.5016090187e+01 -5.5617119431e+01 -3.6916795859e+01 6.8422194899e+01 0.0000000000e+00 0.0000e+00 1.0000e+00
       21  1    1    2  505  502 -9.7492178283e+00 -4.8578541679e+01 +3.9399606873e+01 6.3302851292e+01 0.0000000000e+00 0.0000e+00 1.0000e+00
<mgrwt>
<rscale>  4 0.19717205E+03</rscale>
<asrwt>0</asrwt>
<pdfrwt beam="1">  1       21 0.50205500E-01 0.19717205E+03</pdfrwt>
<pdfrwt beam="2">  1       21 0.34835136E-01 0.19717205E+03</pdfrwt>
<totfact> 0.29935819E+04</totfact>
</mgrwt>
</event>
<event>
 6      1 +2.5196620e+02 3.11871000e+02 7.54677100e-03 1.09711200e-01
       21 -1    0    0  504  502 +0.0000000000e+00 +0.0000000000e+00 +1.4437124705e+02 1.4437124705e+02 0.0000000000e+00 0.0000e+00 1.0000e+00
       21 -1    0    0  505  503 -0.0000000000e+00 -0.0000000000e+00 -1.7141256094e+03 1.7141256094e+03 0.0000000000e+00 0.0000e+00 1.0000e+00
        6  1    1    2  501    0 +1.4471669585e+02 +2.0361089639e+02 -7.6402508237e+02 8.2223089560e+02 1.7300000000e+02 0.0000e+00 1.0000e+00
       -6  1    1    2    0  503 -1.8654951475e+02 -1.9771204805e+02 -7.5175943462e+02 8.1790098603e+02 1.7300000000e+02 0.0000e+00 1.0000e+00
       21  1    1    2  504  501 +1.5145928096e+00 +6.9467029006e+01 +4.8642462058e+01 8.4817753008e+01 0.0000000000e+00 0.0000e+00 1.0000e+00
       21  1    1    2  505  502 +4.0318226094e+01 -7.5365877349e+01 -1.0261230746e+02 1.3354722186e+02 0.0000000000e+00 0.0000e+00 -1.0000e+00
<mgrwt>
<rscale>  4 0.31187099E+03</rscale>
<asrwt>0</asrwt>
<pdfrwt beam="1">  1       21 0.22210962E-01 0.31187099E+03</pdfrwt>
<pdfrwt beam="2">  1       21 0.26371162E+00 0.31187099E+03</pdfrwt>
<totfact> 0.93179643E+02</totfact>
</mgrwt>
</event>
<event>
 6      1 +2.5196620e+02 1.82595300e+02 7.54677100e-03 1.12691600e-01
       21 -1    0    0  504  502 +0.0000000000e+00 +0.0000000000e+00 +1.6234602755e+03 1.6234602755e+03 0.0000000000e+00 0.0000e+00 -1.0000e+00
       21 -1    0    0  505  503 -0.0000000000e+00 -0.0000000000e+00 -1.9136931954e+02 1.9136931954e+02 0.0000000000e+00 0.0000e+00 -1.0000e+00
        6  1    1    2  501    0 -1.0477260182e+02 -3.8498111460e+01 +7.7307187690e+01 2.1991999442e+02 1.7300000000e+02 0.0000e+00 1.0000e+00
       -6  1    1    2    0  503 -3.5192543839e+00 -9.4590203942e+01 -2.8063535558e+01 1.9918899031e+02 1.7300000000e+02 0.0000e+00 -1.0000e+00
       21  1    1    2  504  501 +8.2537343702e+01 +1.3345239879e+02 +1.0242869714e+03 1.0362363416e+03 0.0000000000e+00 0.0000e+00 -1.0000e+00
       21  1    1    2  505  502 +2.5754512505e+01 -3.6408338599e-01 +3.5856033239e+02 3.5948426869e+02 0.0000000000e+00 0.0000e+00 -1.0000e+00
<mgrwt>
<rscale>  4 0.18259530E+03</rscale>
<asrwt>0</asrwt>
<pdfrwt beam="1">  1       21 0.24976311E+00 0.18259530E+03</pdfrwt>
<pdfrwt beam="2">  1       21 0.29441435E-01 0.18259530E+03</pdfrwt>
<totfact> 0.74711906E+02</totfact>
</mgrwt>
</event>
<event>
 6      1 +2.5196620e+02 2.18362500e+02 7.54677100e-03 1.16558800e-01
       21 -1    0    0  505  502 +0.0000000000e+00 +0.0000000000e+00 +1.5666760827e+03 1.5666760827e+03 0.0000000000e+00 0.0000e+00 1.0000e+00
       21 -1    0    0  504  503 -0.0000000000e+00 -0.0000000000e+00 -3.2135375074e+02 3.2135375074e+02 0.0000000000e+00 0.0000e+00 1.0000e+00
        6  1    1    2  501    0 -2.0812419279e+01 +1.2955440790e+02 -1.0440088056e+02 2.4092746889e+02 1.7300000000e+02 0.0000e+00 1.0000e+00
       -6  1    1    2    0  502 +8.4092861374e+00 -1.3064816356e+02 -3.0928906278e+01 2.1914665404e+02 1.7300000000e+02 0.0000e+00 -1.0000e+00
       21  1    1    2  504  501 -5.0128612919e+01 +1.3549941358e+01 +6.5088133245e+00 5.2333960245e+01 0.0000000000e+00 0.0000e+00 1.0000e+00
       21  1    1    2  505  503 +6.2531746060e+01 -1.2456185702e+01 +1.3741433055e+03 1.3756217503e+03 0.0000000000e+00 0.0000e+00 1.0000e+00
<mgrwt>
<rscale>  4 0.21836255E+03</rscale>
<asrwt>0</asrwt>
<pdfrwt beam="1">  1       21 0.24102708E+00 0.21836255E+03</pdfrwt>
<pdfrwt beam="2">  1       21 0.49439040E-01 0.21836255E+03</pdfrwt>
<totfact> 0.28339505E+02</totfact>
</mgrwt>
</event>
<event>
 6      1 +2.5196620e+02 1.77339400e+02 7.54677100e-03 9.49153200e-02
       21 -1    0    0  503  502 +0.0000000000e+00 +0.0000000000e+00 +2.4823365872e+02 2.4823365872e+02 0.0000000000e+00 0.0000e+00 -1.0000e+00
       21 -1    0    0  504  503 -0.0000000000e+00 -0.0000000000e+00 -5.9190904191e+02 5.9190904191e+02 0.0000000000e+00 0.0000e+00 -1.0000e+00
        6  1    1    2  501    0 -8.6687769489e+00 +2.9509275979e+01 +6.1723817203e+01 1.8623848870e+02 1.7300000000e+02 0.0000e+00 1.0000e+00
       -6  1    1    2    0  505 +3.2374057657e+01 -3.2035825158e+01 -1.3619209497e+02 2.2483696412e+02 1.7300000000e+02 0.0000e+00 -1.0000e+00
       21  1    1    2  504  501 +1.5537757792e+01 +2.3873917714e+01 -3.4225687630e+02 3.4344017709e+02 0.0000000000e+00 0.0000e+00 -1.0000e+00
       21  1    1    2  505  502 -3.9243038500e+01 -2.1347368535e+01 +7.3049770884e+01 8.5627070722e+01 0.0000000000e+00 0.0000e+00 -1.0000e+00
<mgrwt>
<rscale>  4 0.17733937E+03</rscale>
<asrwt>0</asrwt>
<pdfrwt beam="1">  1       21 0.38189794E-01 0.17733937E+03</pdfrwt>
<pdfrwt beam="2">  1       21 0.91062928E-01 0.17733937E+03</pdfrwt>
<totfact> 0.68395270E+03</totfact>
</mgrwt>
</event>
<event>
 6      1 +2.5196620e+02 1.82838300e+02 7.54677100e-03 9.49153200e-02
       21 -1    0    0  505  502 +0.0000000000e+00 +0.0000000000e+00 +6.5253162154e+02 6.5253162154e+02 0.0000000000e+00 0.0000e+00 -1.0000e+00
       21 -1    0    0  504  503 -0.0000000000e+00 -0.0000000000e+00 -1.8697875658e+02 1.8697875658e+02 0.0000000000e+00 0.0000e+00 -1.0000e+00
        6  1    1    2  501    0 +6.2348559492e+01 +5.3209234880e+01 +1.2079158269e+01 1.9181624439e+02 1.7300000000e+02 0.0000e+00 1.0000e+00
       -6  1    1    2    0  502 -7.3224973944e+01 +3.1499550778e+01 +1.9438044511e+02 2.7215230285e+02 1.7300000000e+02 0.0000e+00 1.0000e+00
       21  1    1    2  504  501 -1.7486140655e+01 -5.7175623277e+01 -4.1230656692e+01 7.2627708647e+01 0.0000000000e+00 0.0000e+00 1.0000e+00
       21  1    1    2  505  503 +2.8362555106e+01 -2.7533162381e+01 +3.0032391827e+02 3.0291412223e+02 0.0000000000e+00 0.0000e+00 -1.0000e+00
<mgrwt>
<rscale>  4 0.18283826E+03</rscale>
<asrwt>0</asrwt>
<pdfrwt beam="1">  1       21 0.10038948E+00 0.18283826E+03</pdfrwt>
<pdfrwt beam="2">  1       21 0.28765963E-01 0.18283826E+03</pdfrwt>
<totfact> 0.94718246E+03</totfact>
</mgrwt>
</event>
<event>
 6      1 +2.5196620e+02 1.73944900e+02 7.54677100e-03 1.07655700e-01
       21 -1    0    0  501  502 +0.0000000000e+00 +0.0000000000e+00 +5.2538652889e+02 5.2538652889e+02 0.0000000000e+00 0.0000e+00 1.0000e+00
       21 -1    0    0  502  503 -0.0000000000e+00 -0.0000000000e+00 -1.6375768105e+03 1.6375768105e+03 0.0000000000e+00 0.0000e+00 1.0000e+00
        6  1    1    2  501    0 -3.5026547036e+01 -3.3704609716e+00 -3.9719989368e+02 4.3466650957e+02 1.7300000000e+02 0.0000e+00 1.0000e+00
       -6  1    1    2    0  505 +1.8834554765e+01 -1.2558187424e+02 +4.1902611797e+02 4.7078385182e+02 1.7300000000e+02 0.0000e+00 1.0000e+00
       21  1    1    2  504  503 +3.9159636961e+01 +1.9693118783e+01 -1.1445326197e+03 1.1453716487e+03 0.0000000000e+00 0.0000e+00 1.0000e+00
       21  1    1    2  505  504 -2.2967644690e+01 +1.0925921643e+02 +1.0516113849e+01 1.1214132926e+02 0.0000000000e+00 0.0000e+00 1.0000e+00
<mgrwt>
<rscale>  4 0.17394493E+03</rscale>
<asrwt>0</asrwt>
<pdfrwt beam="1">  1       21 0.80828699E-01 0.17394493E+03</pdfrwt>
<pdfrwt beam="2">  1       21 0.25193489E+00 0.17394493E+03</pdfrwt>
<totfact> 0.89758555E+01</totfact>
</mgrwt>
</event>
<event>
 6      1 +2.5196620e+02 3.27503900e+02 7.54677100e-03 1.16321900e-01
       21 -1    0    0  505  502 +0.0000000000e+00 +0.0000000000e+00 +4.7479925854e+02 4.7479925854e+02 0.0000000000e+00 0.0000e+00 -1.0000e+00
       21 -1    0    0  504  503 -0.0000000000e+00 -0.0000000000e+00 -4.0999221728e+02 4.0999221728e+02 0.0000000000e+00 0.0000e+00 1.0000e+00
        6  1    1    2  501    0 -2.9843588226e+02 -1.0973859405e+02 +1.7744466825e+02 4.0314035414e+02 1.7300000000e+02 0.0000e+00 -1.0000e+00
       -6  1    1    2    0  502 +2.0955150187e+02 +9.6545335871e+01 +1.8448102254e+01 2.8896741389e+02 1.7300000000e+02 0.0000e+00 1.0000e+00
       21  1    1    2  504  501 +9.9941253589e+01 -2.1492259189e+01 -7.9280219045e+01 1.2936585526e+02 0.0000000000e+00 0.0000e+00 1.0000e+00
       21  1    1    2  505  503 -1.1056873200e+01 +3.4685517371e+01 -5.1805510204e+01 6.3317852520e+01 0.0000000000e+00 0.0000e+00 1.0000e+00
<mgrwt>
<rscale>  4 0.32750385E+03</rscale>
<asrwt>0</asrwt>
<pdfrwt beam="1">  1       21 0.73046039E-01 0.32750385E+03</pdfrwt>
<pdfrwt beam="2">  1       21 0.63075726E-01 0.32750385E+03</pdfrwt>
<totfact> 0.36014739E+03</totfact>
</mgrwt>
</event>
<event>
 6      1 +2.5196620e+02 2.07793700e+02 7.54677100e-03 1.11396600e-01
       21 -1    0    0  503  502 +0.0000000000e+00 +0.0000000000e+00 +4.1265660565e+02 4.1265660565e+02 0.0000000000e+00 0.0000e+00 1.0000e+00
       21 -1    0    0  501  503 -0.0000000000e+00 -0.0000000000e+00 -2.1914789623e+02 2.1914789623e+02 0.0000000000e+00 0.0000e+00 1.0000e+00
        6  1    1    2  501    0 +7.7738293763e+01 -1.1784483838e+02 -5.1742034222e+01 2.2920926324e+02 1.7300000000e+02 0.0000e+00 1.0000e+00
       -6  1    1    2    0  505 -4.5757575371e+01 +5.5314263943e+01 +8.9478312976e+01 2.0757839963e+02 1.7300000000e+02 0.0000e+00 1.0000e+00
       21  1    1    2  504  502 -5.7794172760e+01 +1.8770450353e+01 +5.4109365539e+01 8.1365346743e+01 0.0000000000e+00 0.0000e+00 1.0000e+00
       21  1    1    2  505  504 +2.5813454368e+01 +4.3760124082e+01 +1.0166306513e+02 1.1365149228e+02 0.0000000000e+00 0.0000e+00 -1.0000e+00
<mgrwt>
<rscale>  4 0.20779372E+03</rscale>
<asrwt>0</asrwt>
<pdfrwt beam="1">  1       21 0.63485631E-01 0.20779372E+03</pdfrwt>
<pdfrwt beam="2">  1       21 0.33715061E-01 0.20779372E+03</pdfrwt>
<totfact> 0.19263421E+04</totfact>
</mgrwt>
</event>
<event>
 6      1 +2.5196620e+02 1.88912400e+02 7.54677100e-03 1.09079000e-01
       21 -1    0    0  505  502 +0.0000000000e+00 +0.0000000000e+00 +4.4261859738e+02 4.4261859738e+02 0.0000000000e+00 0.0000e+00 -1.0000e+00
       21 -1    0    0  501  503 -0.0000000000e+00 -0.0000000000e+00 -1.7946818071e+02 1.7946818071e+02 0.0000000000e+00 0.0000e+00 -1.0000e+00
        6  1    1    2  501    0 +9.0862961382e+01 -6.1783477216e+01 +9.1056896006e+01 2.2426242244e+02 1.7300000000e+02 0.0000e+00 -1.0000e+00
       -6  1    1    2    0  504 -6.2787284799e+01 -4.9232286790e+01 +7.1002413640e+01 2.0331356063e+02 1.7300000000e+02 0.0000e+00 -1.0000e+00
       21  1    1    2  504  502 -8.1602651791e+00 -2.6238728464e+01 +1.6031173069e+01 3.1812879611e+01 0.0000000000e+00 0.0000e+00 1.0000e+00
       21  1    1    2  505  503 -1.9915411403e+01 +1.3725449247e+02 +8.5059933951e+01 1.6269791541e+02 0.0000000000e+00 0.0000e+00 -1.0000e+00
<mgrwt>
<rscale>  4 0.18891240E+03</rscale>
<asrwt>0</asrwt>
<pdfrwt beam="1">  1       21 0.68095168E-01 0.18891240E+03</pdfrwt>
<pdfrwt beam="2">  1       21 0.27610489E-01 0.18891240E+03</pdfrwt>
<totfact> 0.24698118E+04</totfact>
</mgrwt>
</event>
<event>
 6      1 +2.5196620e+02 2.12023000e+02 7.54677100e-03 1.02776600e-01
       21 -1    0    0  504  502 +0.0000000000e+00 +0.0000000000e+00 +1.6367943847e+02 1.6367943847e+02 0.0000000000e+00 0.0000e+00 1.0000e+00
       21 -1    0    0  501  503 -0.0000000000e+00 -0.0000000000e+00 -1.1851250725e+03 1.1851250725e+03 0.0000000000e+00 0.0000e+00 1.0000e+00
        6  1    1    2  501    0 +1.8620675763e+00 -1.0515184334e+02 -4.4671459795e+02 4.9045214800e+02 1.7300000000e+02 0.0000e+00 1.0000e+00
       -6  1    1    2    0  502 -2.7313308257e+01 +1.2295187327e+02 +5.7338856630e+01 2.2153989354e+02 1.7300000000e+02 0.0000e+00 1.0000e+00
       21  1    1    2  504  505 +3.2019710022e+01 +1.9699271113e+01 -2.4392623053e+02 2.4680625814e+02 0.0000000000e+00 0.0000e+00 1.0000e+00
       21  1    1    2  505  503 -6.5684693420e+00 -3.7499301049e+01 -3.8814366221e+02 3.9000621134e+02 0.0000000000e+00 0.0000e+00 1.0000e+00
<mgrwt>
<rscale>  4 0.21202304E+03</rscale>
<asrwt>0</asrwt>
<pdfrwt beam="1">  1       21 0.25181452E-01 0.21202304E+03</pdfrwt>
<pdfrwt beam="2">  1       21 0.18232693E+00 0.21202304E+03</pdfrwt>
<totfact> 0.25736035E+03</totfact>
</mgrwt>
</event>
<event>
 6      1 +2.5196620e+02 1.84849400e+02 7.54677100e-03 9.49153200e-02
       21 -1    0    0  505  502 +0.0000000000e+00 +0.0000000000e+00 +1.1297226227e+03 1.1297226227e+03 0.0000000000e+00 0.0000e+00 -1.0000e+00
       21 -1    0    0  504  503 -0.0000000000e+00 -0.0000000000e+00 -4.5946308569e+01 4.5946308569e+01 0.0000000000e+00 0.0000e+00 -1.0000e+00
        6  1    1    2  501    0 +8.3417773427e+00 -7.5881273063e+01 +4.5251536365e+02 4.9043522222e+02 1.7300000000e+02 0.0000e+00 -1.0000e+00
       -6  1    1    2    0  502 +3.7663020442e+01 +4.9957780592e+01 +3.8641903564e+02 4.2797541291e+02 1.7300000000e+02 0.0000e+00 -1.0000e+00
       21  1    1    2  504  501 -1.2236652214e+01 +2.3131449985e+01 +3.0208848768e+01 3.9967163768e+01 0.0000000000e+00 0.0000e+00 -1.0000e+00
       21  1    1    2  505  503 -3.3768145571e+01 +2.7920424869e+00 +2.1463306606e+02 2.1729113237e+02 0.0000000000e+00 0.0000e+00 -1.0000e+00
<mgrwt>
<rscale>  4 0.18484938E+03</rscale>
<asrwt>0</asrwt>
<pdfrwt beam="1">  1       21 0.17380346E+00 0.18484938E+03</pdfrwt>
<pdfrwt beam="2">  1       21 0.70686637E-02 0.18484938E+03</pdfrwt>
<totfact> 0.30009866E+04</totfact>
</mgrwt>
</event>
<event>
 6      1 +2.5196620e+02 1.74879200e+02 7.54677100e-03 1.06301000e-01
       21 -1    0    0  501  502 +0.0000000000e+00 +0.0000000000e+00 +1.1213428071e+03 1.1213428071e+03 0.0000000000e+00 0.0000e+00 -1.0000e+00
       21 -1    0    0  504  503 -0.0000000000e+00 -0.0000000000e+00 -4.0325429264e+02 4.0325429264e+02 0.0000000000e+00 0.0000e+00 -1.0000e+00
        6  1    1    2  501    0 +1.5326871866e+01 -2.8230194460e+01 +9.7357374230e+02 9.8934659679e+02 1.7300000000e+02 0.0000e+00 -1.0000e+00
       -6  1    1    2    0  503 +1.4062814481e+01 +2.9964688127e+00 -2.1131960837e+01 1.7487796129e+02 1.7300000000e+02 0.0000e+00 -1.0000e+00
       21  1    1    2  504  505 -4.3648763216e+01 +3.6504259249e+00 -2.9300961943e+02 2.9626538309e+02 0.0000000000e+00 0.0000e+00 -1.0000e+00
       21  1    1    2  505  502 +1.4259076868e+01 +2.1583299722e+01 +5.8656352447e+01 6.4107158590e+01 0.0000000000e+00 0.0000e+00 1.0000e+00
<mgrwt>
<rscale>  4 0.17487921E+03</rscale>
<asrwt>0</asrwt>
<pdfrwt beam="1">  1       21 0.17251428E+00 0.17487921E+03</pdfrwt>
<pdfrwt beam="2">  1       21 0.62039122E-01 0.17487921E+03</pdfrwt>
<totfact> 0.50498015E+02</totfact>
</mgrwt>
</event>
<event>
 6      1 +2.5196620e+02 2.10453900e+02 7.54677100e-03 1.16558800e-01
       21 -1    0    0  505  502 +0.0000000000e+00 +0.0000000000e+00 +2.7725222570e+02 2.7725222570e+02 0.0000000000e+00 0.0000e+00 1.0000e+00
       21 -1    0    0  504  503 -0.0000000000e+00 -0.0000000000e+00 -2.4916442996e+02 2.4916442996e+02 0.0000000000e+00 0.0000e+00 1.0000e+00
        6  1    1    2  501    0 -3.7762043215e+01 -1.2207261876e+02 -8.5678124071e+01 2.3151120297e+02 1.7300000000e+02 0.0000e+00 1.0000e+00
       -6  1    1    2    0  502 +1.7472988939e+01 +1.0233550418e+02 +1.1216755795e+02 2.3084285091e+02 1.7300000000e+02 0.0000e+00 1.0000e+00
       21  1    1    2  504  501 +1.9810709604e+01 -3.5301257277e+00 -2.2755921301e+01 3.0376931328e+01 0.0000000000e+00 0.0000e+00 1.0000e+00
       21  1    1    2  505  503 +4.7834467156e-01 +2.3267240306e+01 +2.4354283160e+01 3.3685670444e+01 0.0000000000e+00 0.0000e+00 -1.0000e+00
<mgrwt>
<rscale>  4 0.21045389E+03</rscale>
<asrwt>0</asrwt>
<pdfrwt beam="1">  1       21 0.42654189E-01 0.21045389E+03</pdfrwt>
<pdfrwt beam="2">  1       21 0.38332989E-01 0.21045389E+03</pdfrwt>
<totfact> 0.34373928E+04</totfact>
</mgrwt>
</event>
<event>
 6      1 +2.5196620e+02 2.04260100e+02 7.54677100e-03 1.09711200e-01
       21 -1    0    0  505  502 +0.0000000000e+00 +0.0000000000e+00 +8.6274515561e+02 8.6274515561e+02 0.0000000000e+00 0.0000e+00 1.0000e+00
       21 -1    0    0  504  503 -0.0000000000e+00 -0.0000000000e+00 -1.3760068648e+02 1.3760068648e+02 0.0000000000e+00 0.0000e+00 -1.0000e+00
        6  1    1    2  501    0 +5.7856480767e+01 +1.5484765265e+02 +1.2539118156e+02 2.7014277024e+02 1.7300000000e+02 0.0000e+00 -1.0000e+00
       -6  1    1    2    0  503 -4.4055809665e+01 -5.1514105142e+01 +9.4858976257e+01 2.0861889361e+02 1.7300000000e+02 0.0000e+00 -1.0000e+00
       21  1    1    2  504  502 +2.2290030381e+01 -2.3841869657e+00 +1.1803999219e+02 1.2014977968e+02 0.0000000000e+00 0.0000e+00 1.0000e+00
       21  1    1    2  505  501 -3.6090701484e+01 -1.0094936055e+02 +3.8685431912e+02 4.0143439856e+02 0.0000000000e+00 0.0000e+00 1.0000e+00
<mgrwt>
<rscale>  4 0.20426013E+03</rscale>
<asrwt>0</asrwt>
<pdfrwt beam="1">  1       21 0.13273002E+00 0.20426013E+03</pdfrwt>
<pdfrwt beam="2">  1       21 0.21169337E-01 0.20426013E+03</pdfrwt>
<totfact> 0.84371161E+03</totfact>
</mgrwt>
</event>
<event>
 6      1 +2.5196620e+02 2.58522700e+02 7.54677100e-03 1.15334700e-01
       21 -1    0    0  501  502 +0.0000000000e+00 +0.0000000000e+00 +1.6737815229e+03 1.6737815229e+03 0.0000000000e+00 0.0000e+00 1.0000e+00
       21 -1    0    0  502  503 -0.0000000000e+00 -0.0000000000e+00 -6.9591889463e+01 6.9591889463e+01 0.0000000000e+00 0.0000e+00 -1.0000e+00
        6  1    1    2  501    0 -1.6507739821e+02 -1.1865694234e+02 +9.7335555510e+02 1.0092968116e+03 1.7300000000e+02 0.0000e+00 1.0000e+00
       -6  1    1    2    0  504 +1.1930327123e+02 +1.4798810250e+02 +5.3106777360e+02 5.8999638064e+02 1.7300000000e+02 0.0000e+00 -1.0000e+00
       21  1    1    2  504  505 +1.9637095667e+01 +4.2386341525e+00 +9.9527316444e+01 1.0153456684e+02 0.0000000000e+00 0.0000e+00 -1.0000e+00
       21  1    1    2  505  503 +2.6137031314e+01 -3.3569794315e+01 +2.3898832858e-01 4.2545653264e+01 0.0000000000e+00 0.0000e+00 1.0000e+00
<mgrwt>
<rscale>  4 0.25852268E+03</rscale>
<asrwt>0</asrwt>
<pdfrwt beam="1">  1       21 0.25750482E+00 0.25852268E+03</pdfrwt>
<pdfrwt beam="2">  1       21 0.10706446E-01 0.25852268E+03</pdfrwt>
<totfact> 0.40614966E+03</totfact>
</mgrwt>
</event>
<event>
 6      1 +2.5196620e+02 1.96707200e+02 7.54677100e-03 9.49153200e-02
       21 -1    0    0  503  502 +0.0000000000e+00 +0.0000000000e+00 +1.4634594923e+03 1.4634594923e+03 0.0000000000e+00 0.0000e+00 1.0000e+00
       21 -1    0    0  504  503 -0.0000000000e+00 -0.0000000000e+00 -1.0167959535e+02 1.0167959535e+02 0.0000000000e+00 0.0000e+00 1.0000e+00
        6  1    1    2  501    0 +1.1603908967e+02 -2.9262976111e+01 +1.1013434451e+03 1.1212527709e+03 1.7300000000e+02 0.0000e+00 1.0000e+00
       -6  1    1    2    0  505 -3.4731938398e+01 +1.5294845432e+01 +5.1133247099e+01 1.8434708785e+02 1.7300000000e+02 0.0000e+00 1.0000e+00
       21  1    1    2  504  501 -5.6974445874e+01 +2.2437195156e+01 +1.4351770555e+01 6.2892674671e+01 0.0000000000e+00 0.0000e+00 1.0000e+00
       21  1    1    2  505  502 -2.4332705394e+01 -8.4690644767e+00 +1.9495143416e+02 1.9664655422e+02 0.0000000000e+00 0.0000e+00 1.0000e+00
<mgrwt>
<rscale>  4 0.19670719E+03</rscale>
<asrwt>0</asrwt>
<pdfrwt beam="1">  1       21 0.22514760E+00 0.19670719E+03</pdfrwt>
<pdfrwt beam="2">  1       21 0.15643016E-01 0.19670719E+03</pdfrwt>
<totfact> 0.33861344E+03</totfact>
</mgrwt>
</event>
<event>
 6      1 +2.5196620e+02 1.89631100e+02 7.54677100e-03 1.09711200e-01
       21 -1    0    0  501  502 +0.0000000000e+00 +0.0000000000e+00 +1.7358924128e+03 1.7358924128e+03 0.0000000000e+00 0.0000e+00 1.0000e+00
       21 -1    0    0  505  503 -0.0000000000e+00 -0.0000000000e+00 -1.6718734183e+02 1.6718734183e+02 0.0000000000e+00 0.0000e+00 -1.0000e+00
        6  1    1    2  501    0 -6.3296612870e+01 -7.4736897545e+01 +2.5713758716e+02 3.2502431261e+02 1.7300000000e+02 0.0000e+00 1.0000e+00
       -6  1    1    2    0  503 +7.9268107977e+01 -3.7874979254e+01 -5.8284370677e+01 2.0259322511e+02 1.7300000000e+02 0.0000e+00 -1.0000e+00
       21  1    1    2  504  502 -2.0780825108e+01 +3.1582440393e+01 +6.3879098925e+02 6.3990876005e+02 0.0000000000e+00 0.0000e+00 1.0000e+00
       21  1    1    2  505  504 +4.8093300009e+00 +8.1029436406e+01 +7.3106086523e+02 7.3555345686e+02 0.0000000000e+00 0.0000e+00 1.0000e+00
<mgrwt>
<rscale>  4 0.18963105E+03</rscale>
<asrwt>0</asrwt>
<pdfrwt beam="1">  1       21 0.26706036E+00 0.18963105E+03</pdfrwt>
<pdfrwt beam="2">  1       21 0.25721131E-01 0.18963105E+03</pdfrwt>
<totfact> 0.76147009E+02</totfact>
</mgrwt>
</event>
<event>
 6      1 +2.5196620e+02 1.99132700e+02 7.54677100e-03 1.09711200e-01
       21 -1    0    0  505  502 +0.0000000000e+00 +0.0000000000e+00 +1.4249556295e+02 1.4249556295e+02 0.0000000000e+00 0.0000e+00 -1.0000e+00
       21 -1    0    0  504  503 -0.0000000000e+00 -0.0000000000e+00 -1.5107645475e+03 1.5107645475e+03 0.0000000000e+00 0.0000e+00 -1.0000e+00
        6  1    1    2  501    0 +1.2629962009e+02 +6.2025529379e+01 -4.1185088803e+01 2.2676854250e+02 1.7300000000e+02 0.0000e+00 -1.0000e+00
       -6  1    1    2    0  503 -9.2692781603e+01 -2.2983748309e+01 -1.3177498149e+03 1.3324840634e+03 1.7300000000e+02 0.0000e+00 -1.0000e+00
       21  1    1    2  504  502 +1.4626733443e+01 -2.3418934194e+01 +2.1209818599e+01 3.4817297641e+01 0.0000000000e+00 0.0000e+00 -1.0000e+00
       21  1    1    2  505  501 -4.8233571926e+01 -1.5622846876e+01 -3.0543899436e+01 5.9190206944e+01 0.0000000000e+00 0.0000e+00 -1.0000e+00
<mgrwt>
<rscale>  4 0.19913269E+03</rscale>
<asrwt>0</asrwt>
<pdfrwt beam="1">  1       21 0.21922396E-01 0.19913269E+03</pdfrwt>
<pdfrwt beam="2">  1       21 0.23242530E+00 0.19913269E+03</pdfrwt>
<totfact> 0.16312825E+03</totfact>
</mgrwt>
</event>
<event>
 6      1 +2.5196620e+02 3.14783700e+02 7.54677100e-03 9.49153200e-02
       21 -1    0    0  504  502 +0.0000000000e+00 +0.0000000000e+00 +1.9901580480e+02 1.9901580480e+02 0.0000000000e+00 0.0000e+00 1.0000e+00
       21 -1    0    0  501  503 -0.0000000000e+00 -0.0000000000e+00 -7.0940720574e+02 7.0940720574e+02 0.0000000000e+00 0.0000e+00 -1.0000e+00
        6  1    1    2  501    0 +2.3308167485e+02 +1.4423843383e+02 -5.2156237340e+01 3.2830026810e+02 1.7300000000e+02 0.0000e+00 1.0000e+00
       -6  1    1    2    0  505 -2.1351983547e+02 -1.2870877034e+02 -4.0754977674e+02 5.0811660888e+02 1.7300000000e+02 0.0000e+00 -1.0000e+00
       21  1    1    2  504  503 -1.8253867863e+01 +1.2270083055e+01 -1.4450111212e+01 2.6316617263e+01 0.0000000000e+00 0.0000e+00 1.0000e+00
       21  1    1    2  505  502 -1.3079715107e+00 -2.7799746552e+01 -3.6235275649e+01 4.5689516294e+01 0.0000000000e+00 0.0000e+00 1.0000e+00
<mgrwt>
<rscale>  4 0.31478368E+03</rscale>
<asrwt>0</asrwt>
<pdfrwt beam="1">  1       21 0.30617816E-01 0.31478368E+03</pdfrwt>
<pdfrwt beam="2">  1       21 0.10913957E+00 0.31478368E+03</pdfrwt>
<totfact> 0.63282344E+03</totfact>
</mgrwt>
</event>
<event>
 6      1 +2.5196620e+02 2.66759400e+02 7.54677100e-03 1.07655700e-01
       21 -1    0    0  501  502 +0.0000000000e+00 +0.0000000000e+00 +5.9969398259e+02 5.9969398259e+02 0.0000000000e+00 0.0000e+00 1.0000e+00
       21 -1    0    0  502  503 -0.0000000000e+00 -0.0000000000e+00 -2.8585733808e+02 2.8585733808e+02 0.0000000000e+00 0.0000e+00 1.0000e+00
        6  1    1    2  501    0 -1.0414828881e+02 -1.7257936798e+02 +4.1771512240e+02 4.9502063371e+02 1.7300000000e+02 0.0000e+00 1.0000e+00
       -6  1    1    2    0  505 +1.4830173218e+02 +1.5234109310e+02 +1.7553086813e-01 2.7409896611e+02 1.7300000000e+02 0.0000e+00 1.0000e+00
       21  1    1    2  504  503 -2.1181172156e+01 +3.8126101430e+00 -6.3225540695e+01 6.6788075629e+01 0.0000000000e+00 0.0000e+00 1.0000e+00
       21  1    1    2  505  504 -2.2972271215e+01 +1.6425664737e+01 -4.0828468061e+01 4.9643645223e+01 0.0000000000e+00 0.0000e+00 1.0000e+00
<mgrwt>
<rscale>  4 0.26675937E+03</rscale>
<asrwt>0</asrwt>
<pdfrwt beam="1">  1       21 0.92260613E-01 0.26675937E+03</pdfrwt>
<pdfrwt beam="2">  1       21 0.43978052E-01 0.26675937E+03</pdfrwt>
<totfact> 0.46805419E+03</totfact>
</mgrwt>
</event>
<event>
 6      1 +2.5196620e+02 2.22740300e+02 7.54677100e-03 1.16128000e-01
       21 -1    0    0  501  502 +0.0000000000e+00 +0.0000000000e+00 +1.0552603736e+03 1.0552603736e+03 0.0000000000e+00 0.0000e+00 -1.0000e+00
       21 -1    0    0  502  503 -0.0000000000e+00 -0.0000000000e+00 -1.2994991668e+02 1.2994991668e+02 0.0000000000e+00 0.0000e+00 -1.0000e+00
        6  1    1    2  501    0 +1.1548083086e+02 +1.0497056744e+02 +3.2350576141e+02 3.9867232157e+02 1.7300000000e+02 0.0000e+00 -1.0000e+00
       -6  1    1    2    0  504 -1.4889548617e+02 +1.1234533652e+01 +6.1699817068e+02 6.5796035075e+02 1.7300000000e+02 0.0000e+00 -1.0000e+00
       21  1    1    2  504  505 +1.8623718623e+01 -1.3037412970e+01 +2.4752991271e+00 2.2867971884e+01 0.0000000000e+00 0.0000e+00 1.0000e+00
       21  1    1    2  505  503 +1.4790936688e+01 -1.0316768812e+02 -1.7668774327e+01 1.0570964604e+02 0.0000000000e+00 0.0000e+00 -1.0000e+00
<mgrwt>
<rscale>  4 0.22274030E+03</rscale>
<asrwt>0</asrwt>
<pdfrwt beam="1">  1       21 0.16234774E+00 0.22274030E+03</pdfrwt>
<pdfrwt beam="2">  1       21 0.19992296E-01 0.22274030E+03</pdfrwt>
<totfact> 0.54545701E+03</totfact>
</mgrwt>
</event>
<event>
 6      1 +2.5196620e+02 2.29939800e+02 7.54677100e-03 1.16726300e-01
       21 -1    0    0  504  502 +0.0000000000e+00 +0.0000000000e+00 +7.5051261480e+02 7.5051261480e+02 0.0000000000e+00 0.0000e+00 -1.0000e+00
       21 -1    0    0  502  503 -0.0000000000e+00 -0.0000000000e+00 -3.3999025617e+02 3.3999025617e+02 0.0000000000e+00 0.0000e+00 -1.0000e+00
        6  1    1    2  501    0 -1.4350373917e+01 -1.2771083598e+02 +3.5690323235e+02 4.1692314414e+02 1.7300000000e+02 0.0000e+00 -1.0000e+00
       -6  1    1    2    0  505 +2.4302366367e+02 +1.6546208313e+02 +1.8143419015e+02 3.8637490525e+02 1.7300000000e+02 0.0000e+00 -1.0000e+00
       21  1    1    2  504  501 -7.3483210224e+01 -1.3739738638e+00 +1.2856292338e+01 7.4612024780e+01 0.0000000000e+00 0.0000e+00 -1.0000e+00
       21  1    1    2  505  503 -1.5519007952e+02 -3.6377273280e+01 -1.4067135621e+02 2.1259279680e+02 0.0000000000e+00 0.0000e+00 -1.0000e+00
<mgrwt>
<rscale>  4 0.22993979E+03</rscale>
<asrwt>0</asrwt>
<pdfrwt beam="1">  1       21 0.11546348E+00 0.22993979E+03</pdfrwt>
<pdfrwt beam="2">  1       21 0.52306193E-01 0.22993979E+03</pdfrwt>
<totfact> 0.19487675E+03</totfact>
</mgrwt>
</event>
<event>
 6      1 +2.5196620e+02 2.43727700e+02 7.54677100e-03 1.16321900e-01
       21 -1    0    0  504  502 +0.0000000000e+00 +0.0000000000e+00 +1.3830909342e+03 1.3830909342e+03 0.0000000000e+00 0.0000e+00 -1.0000e+00
       21 -1    0    0  501  503 -0.0000000000e+00 -0.0000000000e+00 -1.0844033811e+02 1.0844033811e+02 0.0000000000e+00 0.0000e+00 1.0000e+00
        6  1    1    2  501    0 -7.9325465443e+01 -1.1687453046e+02 +6.5692371301e+01 2.3280178905e+02 1.7300000000e+02 0.0000e+00 1.0000e+00
       -6  1    1    2    0  502 +9.5020033529e+01 +1.4881216990e+02 +1.1282616401e+03 1.1550225959e+03 1.7300000000e+02 0.0000e+00 -1.0000e+00
       21  1    1    2  504  505 -3.4966423585e+01 -1.2401645519e+01 +5.3204083444e+01 6.4862362623e+01 0.0000000000e+00 0.0000e+00 -1.0000e+00
       21  1    1    2  505  503 +1.9271855498e+01 -1.9535993921e+01 +2.7492501290e+01 3.8844524711e+01 0.0000000000e+00 0.0000e+00 -1.0000e+00
<mgrwt>
<rscale>  4 0.24372774E+03</rscale>
<asrwt>0</asrwt>
<pdfrwt beam="1">  1       21 0.21278321E+00 0.24372774E+03</pdfrwt>
<pdfrwt beam="2">  1       21 0.16683130E-01 0.24372774E+03</pdfrwt>
<totfact> 0.34380592E+03</totfact>
</mgrwt>
</event>
<event>
 6      1 +2.5196620e+02 2.16033200e+02 7.54677100e-03 9.49153200e-02
       21 -1    0    0  505  502 +0.0000000000e+00 +0.0000000000e+00 +6.6012293419e+02 6.6012293419e+02 0.0000000000e+00 0.0000e+00 -1.0000e+00
       21 -1    0    0  501  503 -0.0000000000e+00 -0.0000000000e+00 -1.6452871102e+02 1.6452871102e+02 0.0000000000e+00 0.0000e+00 1.0000e+00
        6  1    1    2  501    0 -6.1148148724e+01 +1.3694193797e+02 +4.9667599376e+01 2.3428201146e+02 1.7300000000e+02 0.0000e+00 1.0000e+00
       -6  1    1    2    0  502 +4.1517351380e+01 -1.0186766582e+02 +1.0042587477e+02 2.2828724916e+02 1.7300000000e+02 0.0000e+00 1.0000e+00
       21  1    1    2  504  503 +1.4345996360e+01 -1.5035186279e+01 +5.5623985351e+00 2.1512896492e+01 0.0000000000e+00 0.0000e+00 -1.0000e+00
       21  1    1    2  505  504 +5.2848009839e+00 -2.0039085875e+01 +3.3993835050e+02 3.4056948810e+02 0.0000000000e+00 0.0000e+00 -1.0000e+00
<mgrwt>
<rscale>  4 0.21603324E+03</rscale>
<asrwt>0</asrwt>
<pdfrwt beam="1">  1       21 0.10155737E+00 0.21603324E+03</pdfrwt>
<pdfrwt beam="2">  1       21 0.25312110E-01 0.21603324E+03</pdfrwt>
<totfact> 0.11522271E+04</totfact>
</mgrwt>
</event>
<event>
 6      1 +2.5196620e+02 1.73671800e+02 7.54677100e-03 1.09079000e-01
       21 -1    0    0  503  502 +0.0000000000e+00 +0.0000000000e+00 +2.9399217613e+02 2.9399217613e+02 0.0000000000e+00 0.0000e+00 1.0000e+00
       21 -1    0    0  501  503 -0.0000000000e+00 -0.0000000000e+00 -1.3718517734e+03 1.3718517734e+03 0.0000000000e+00 0.0000e+00 1.0000e+00
        6  1    1    2  501    0 -4.2751008355e+01 +2.0285209481e+01 -2.8113097516e+02 3.3347078378e+02 1.7300000000e+02 0.0000e+00 -1.0000e+00
       -6  1    1    2    0  504 +2.3002518381e+01 -6.2643911980e+00 -9.6441884406e+02 9.8010257893e+02 1.7300000000e+02 0.0000e+00 1.0000e+00
       21  1    1    2  504  505 -2.6629283976e+01 +1.7159328109e+01 -8.6443184227e+01 9.2065115030e+01 0.0000000000e+00 0.0000e+00 1.0000e+00
       21  1    1    2  505  502 +4.6377773950e+01 -3.1180146392e+01 +2.5413340615e+02 2.6020547182e+02 0.0000000000e+00 0.0000e+00 1.0000e+00
<mgrwt>
<rscale>  4 0.17367183E+03</rscale>
<asrwt>0</asrwt>
<pdfrwt beam="1">  1       21 0.45229566E-01 0.17367183E+03</pdfrwt>
<pdfrwt beam="2">  1       21 0.21105412E+00 0.17367183E+03</pdfrwt>
<totfact> 0.54923627E+02</totfact>
</mgrwt>
</event>
<event>
 6      1 +2.5196620e+02 2.38458000e+02 7.54677100e-03 1.07655700e-01
       21 -1    0    0  501  502 +0.0000000000e+00 +0.0000000000e+00 +2.5594573476e+02 2.5594573476e+02 0.0000000000e+00 0.0000e+00 1.0000e+00
       21 -1    0    0  502  503 -0.0000000000e+00 -0.0000000000e+00 -8.1170478665e+02 8.1170478665e+02 0.0000000000e+00 0.0000e+00 -1.0000e+00
        6  1    1    2  501    0 +1.3491501714e+02 +1.4687909883e+02 +7.0598919037e+01 2.7329240548e+02 1.7300000000e+02 0.0000e+00 1.0000e+00
       -6  1    1    2    0  505 -9.8436751628e+01 +9.1911460700e+00 -2.5011719100e+02 3.1978411541e+02 1.7300000000e+02 0.0000e+00 -1.0000e+00
       21  1    1    2  504  503 -1.9728692026e+01 -1.1598549239e+01 -3.1652704018e+02 3.1735329650e+02 0.0000000000e+00 0.0000e+00 -1.0000e+00
       21  1    1    2  505  504 -1.6749573488e+01 -1.4447169566e+02 -5.9713739750e+01 1.5722070402e+02 0.0000000000e+00 0.0000e+00 -1.0000e+00
<mgrwt>
<rscale>  4 0.23845797E+03</rscale>
<asrwt>0</asrwt>
<pdfrwt beam="1">  1       21 0.39376268E-01 0.23845797E+03</pdfrwt>
<pdfrwt beam="2">  1       21 0.12487766E+00 0.23845797E+03</pdfrwt>
<totfact> 0.28644233E+03</totfact>
</mgrwt>
</event>
<event>
 6      1 +2.5196620e+02 4.77773300e+02 7.54677100e-03 9.49153200e-02
       21 -1    0    0  503  502 +0.0000000000e+00 +0.0000000000e+00 +7.8740549442e+02 7.8740549442e+02 0.0000000000e+00 0.0000e+00 1.0000e+00
       21 -1    0    0  504  503 -0.0000000000e+00 -0.0000000000e+00 -3.7043350921e+02 3.7043350921e+02 0.0000000000e+00 0.0000e+00 -1.0000e+00
        6  1    1    2  501    0 +4.3115824239e+02 +3.3670143861e+01 +6.3341542331e+01 4.7007686558e+02 1.7300000000e+02 0.0000e+00 1.0000e+00
       -6  1    1    2    0  505 -4.6467278714e+02 -1.3605590807e+01 +2.7738667125e+02 5.6831177763e+02 1.7300000000e+02 0.0000e+00 -1.0000e+00
       21  1    1    2  504  501 +3.0555583176e+00 -2.3971657587e+01 -1.1299816972e+01 2.6677006348e+01 0.0000000000e+00 0.0000e+00 1.0000e+00
       21  1    1    2  505  502 +3.0458986427e+01 +3.9071045333e+00 +8.7543588608e+01 9.2773354075e+01 0.0000000000e+00 0.0000e+00 -1.0000e+00
<mgrwt>
<rscale>  4 0.47777332E+03</rscale>
<asrwt>0</asrwt>
<pdfrwt beam="1">  1       21 0.12113931E+00 0.47777332E+03</pdfrwt>
<pdfrwt beam="2">  1       21 0.56989771E-01 0.47777332E+03</pdfrwt>
<totfact> 0.12585806E+03</totfact>
</mgrwt>
</event>
<event>
 6      1 +2.5196620e+02 2.02581500e+02 7.54677100e-03 1.16128000e-01
       21 -1    0    0  501  502 +0.0000000000e+00 +0.0000000000e+00 +2.0609969231e+02 2.0609969231e+02 0.0000000000e+00 0.0000e+00 -1.0000e+00
       21 -1    0    0  505  503 -0.0000000000e+00 -0.0000000000e+00 -7.9544150447e+02 7.9544150447e+02 0.0000000000e+00 0.0000e+00 -1.0000e+00
        6  1    1    2  501    0 -4.7856537296e-01 -9.6465095089e+01 +1.0557406279e+02 2.2445629047e+02 1.7300000000e+02 0.0000e+00 -1.0000e+00
       -6  1    1    2    0  503 -2.6007127667e+01 +1.7853546217e+02 -4.5588578802e+02 5.1991550627e+02 1.7300000000e+02 0.0000e+00 -1.0000e+00
       21  1    1    2  504  502 +2.2142430301e+01 -5.6684373437e+01 -2.0863945287e+02 2.1733344590e+02 0.0000000000e+00 0.0000e+00 -1.0000e+00
       21  1    1    2  505  504 +4.3432627390e+00 -2.5385993641e+01 -3.0390634066e+01 3.9835954153e+01 0.0000000000e+00 0.0000e+00 1.0000e+00
<mgrwt>
<rscale>  4 0.20258147E+03</rscale>
<asrwt>0</asrwt>
<pdfrwt beam="1">  1       21 0.31707645E-01 0.20258147E+03</pdfrwt>
<pdfrwt beam="2">  1       21 0.12237562E+00 0.20258147E+03</pdfrwt>
<totfact> 0.47713155E+03</totfact>
</mgrwt>
</event>
<event>
 6      1 +2.5196620e+02 1.99055800e+02 7.54677100e-03 1.06301000e-01
       21 -1    0    0  505  502 +0.0000000000e+00 +0.0000000000e+00 +6.9285665990e+02 6.9285665990e+02 0.0000000000e+00 0.0000e+00 -1.0000e+00
       21 -1    0    0  504  503 -0.0000000000e+00 -0.0000000000e+00 -1.6969538741e+02 1.6969538741e+02 0.0000000000e+00 0.0000e+00 1.0000e+00
        6  1    1    2  501    0 -4.5299059853e+00 -9.6499437194e+01 +2.7369149249e+02 3.3788858295e+02 1.7300000000e+02 0.0000e+00 -1.0000e+00
       -6  1    1    2    0  503 -7.0721580017e+01 +6.4759127077e+01 -2.2180926520e+01 1.9903838806e+02 1.7300000000e+02 0.0000e+00 1.0000e+00
       21  1    1    2  504  502 +2.9408064418e+01 +3.7029074275e+01 -2.7546632857e+00 4.7366388551e+01 0.0000000000e+00 0.0000e+00 1.0000e+00
       21  1    1    2  505  501 +4.5843421584e+01 -5.2887641585e+00 +2.7440536981e+02 2.7825868775e+02 0.0000000000e+00 0.0000e+00 -1.0000e+00
<mgrwt>
<rscale>  4 0.19905580E+03</rscale>
<asrwt>0</asrwt>
<pdfrwt beam="1">  1       21 0.10659333E+00 0.19905580E+03</pdfrwt>
<pdfrwt beam="2">  1       21 0.26106983E-01 0.19905580E+03</pdfrwt>
<totfact> 0.97788771E+03</totfact>
</mgrwt>
</event>
<event>
 6      1 +2.5196620e+02 2.87595000e+02 7.54677100e-03 9.49153200e-02
       21 -1    0    0  505  502 +0.0000000000e+00 +0.0000000000e+00 +3.1627618276e+03 3.1627618276e+03 0.0000000000e+00 0.0000e+00 -1.0000e+00
       21 -1    0    0  501  503 -0.0000000000e+00 -0.0000000000e+00 -9.0931028805e+01 9.0931028805e+01 0.0000000000e+00 0.0000e+00 -1.0000e+00
        6  1    1    2  501    0 +1.7412371281e+02 -2.3180860622e+02 +4.0303894389e+02 5.2576010459e+02 1.7300000000e+02 0.0000e+00 -1.0000e+00
       -6  1    1    2    0  502 -8.3735391284e+01 +2.0379054714e+02 +2.3930478560e+03 2.4093877321e+03 1.7300000000e+02 0.0000e+00 -1.0000e+00
       21  1    1    2  504  503 -6.6407630786e+01 +3.7647348589e+01 +4.9837048392e+01 9.1164837930e+01 0.0000000000e+00 0.0000e+00 -1.0000e+00
       21  1    1    2  505  504 -2.3980690745e+01 -9.6292895079e+00 +2.2590695061e+02 2.2738018180e+02 0.0000000000e+00 0.0000e+00 -1.0000e+00
<mgrwt>
<rscale>  4 0.28759503E+03</rscale>
<asrwt>0</asrwt>
<pdfrwt beam="1">  1       21 0.48657866E+00 0.28759503E+03</pdfrwt>
<pdfrwt beam="2">  1       21 0.13989391E-01 0.28759503E+03</pdfrwt>
<totfact> 0.90695150E+01</totfact>
</mgrwt>
</event>
<event>
 6      1 +2.5196620e+02 1.77543700e+02 7.54677100e-03 1.09711200e-01
       21 -1    0    0  505  502 +0.0000000000e+00 +0.0000000000e+00 +1.8046158732e+02 1.8046158732e+02 0.0000000000e+00 0.0000e+00 -1.0000e+00
       21 -1    0    0  504  503 -0.0000000000e+00 -0.0000000000e+00 -5.3285363426e+02 5.3285363426e+02 0.0000000000e+00 0.0000e+00 -1.0000e+00
        6  1    1    2  501    0 -8.8358418864e+00 -5.2239682494e+01 -2.8586818600e+02 3.3831446362e+02 1.7300000000e+02 0.0000e+00 1.0000e+00
       -6  1    1    2    0  503 +7.4512291109e+01 -3.3353415659e+01 -3.5646971478e+01 1.9458735426e+02 1.7300000000e+02 0.0000e+00 -1.0000e+00
       21  1    1    2  504  502 +2.8191974170e+01 +7.2764231372e+01 -3.5128455667e+01 8.5577036478e+01 0.0000000000e+00 0.0000e+00 -1.0000e+00
       21  1    1    2  505  501 -9.3868423392e+01 +1.2828866780e+01 +4.2515662032e+00 9.4836367224e+01 0.0000000000e+00 0.0000e+00 -1.0000e+00
<mgrwt>
<rscale>  4 0.17754370E+03</rscale>
<asrwt>0</asrwt>
<pdfrwt beam="1">  1       21 0.27763322E-01 0.17754370E+03</pdfrwt>
<pdfrwt beam="2">  1       21 0.81977481E-01 0.17754370E+03</pdfrwt>
<totfact> 0.16273188E+04</totfact>
</mgrwt>
</event>
<event>
 6      1 +2.5196620e+02 2.40752600e+02 7.54677100e-03 1.16128000e-01
       21 -1    0    0  501  502 +0.0000000000e+00 +0.0000000000e+00 +5.5453426991e+02 5.5453426991e+02 0.0000000000e+00 0.0000e+00 -1.0000e+00
       21 -1    0    0  504  503 -0.0000000000e+00 -0.0000000000e+00 -3.4420416011e+02 3.4420416011e+02 0.0000000000e+00 0.0000e+00 1.0000e+00
        6  1    1    2  501    0 +7.8975938231e+01 +1.5480757965e+02 -1.3165595287e+02 2.7832512546e+02 1.7300000000e+02 0.0000e+00 1.0000e+00
       -6  1    1    2    0  503 -1.9736692523e+01 -1.6671575335e+02 +4.4123184255e+02 5.0279043182e+02 1.7300000000e+02 0.0000e+00 -1.0000e+00
       21  1    1    2  504  505 -2.8520014142e+01 +1.1218357971e-01 -3.2730276446e+01 4.3412841281e+01 0.0000000000e+00 0.0000e+00 1.0000e+00
       21  1    1    2  505  502 -3.0719231565e+01 +1.1795990125e+01 -6.6515503433e+01 7.4210031451e+01 0.0000000000e+00 0.0000e+00 1.0000e+00
<mgrwt>
<rscale>  4 0.24075262E+03</rscale>
<asrwt>0</asrwt>
<pdfrwt beam="1">  1       21 0.85312965E-01 0.24075262E+03</pdfrwt>
<pdfrwt beam="2">  1       21 0.52954486E-01 0.24075262E+03</pdfrwt>
<totfact> 0.38722939E+03</totfact>
</mgrwt>
</event>
<event>
 6      1 +2.5196620e+02 1.82819600e+02 7.54677100e-03 1.06301000e-01
       21 -1    0    0  505  502 +0.0000000000e+00 +0.0000000000e+00 +3.8412867925e+01 3.8412867925e+01 0.0000000000e+00 0.0000e+00 -1.0000e+00
       21 -1    0    0  501  503 -0.0000000000e+00 -0.0000000000e+00 -1.8705800498e+03 1.8705800498e+03 0.0000000000e+00 0.0000e+00 -1.0000e+00
        6  1    1    2  501    0 -1.0001438638e+01 +6.5336562819e+01 -1.1816034180e+03 1.1960286504e+03 1.7300000000e+02 0.0000e+00 -1.0000e+00
       -6  1    1    2    0  502 +5.7574615440e+01 -5.4216332233e+01 -3.4559803591e+02 3.9448859229e+02 1.7300000000e+02 0.0000e+00 -1.0000e+00
       21  1    1    2  504  503 -1.3891263463e+01 -2.0951347279e+01 -2.6108167474e+02 2.6228909058e+02 0.0000000000e+00 0.0000e+00 -1.0000e+00
       21  1    1    2  505  504 -3.3681913339e+01 +9.8311166935e+00 -4.3884053232e+01 5.6186584428e+01 0.0000000000e+00 0.0000e+00 1.0000e+00
<mgrwt>
<rscale>  4 0.18281963E+03</rscale>
<asrwt>0</asrwt>
<pdfrwt beam="1">  1       21 0.59096738E-02 0.18281963E+03</pdfrwt>
<pdfrwt beam="2">  1       21 0.28778146E+00 0.18281963E+03</pdfrwt>
<totfact> 0.82102316E+03</totfact>
</mgrwt>
</event>
<event>
 6      1 +2.5196620e+02 3.54537500e+02 7.54677100e-03 1.13287100e-01
       21 -1    0    0  504  502 +0.0000000000e+00 +0.0000000000e+00 +7.2102579380e+01 7.2102579380e+01 0.0000000000e+00 0.0000e+00 -1.0000e+00
       21 -1    0    0  505  503 -0.0000000000e+00 -0.0000000000e+00 -2.5412666113e+03 2.5412666113e+03 0.0000000000e+00 0.0000e+00 1.0000e+00
        6  1    1    2  501    0 -2.0585030740e+02 -1.3667392480e+02 -5.4085665761e+02 6.1928106289e+02 1.7300000000e+02 0.0000e+00 -1.0000e+00
       -6  1    1    2    0  503 +2.8428021916e+02 +1.9364738584e+02 -1.6871182001e+03 1.7304945461e+03 1.7300000000e+02 0.0000e+00 1.0000e+00
       21  1    1    2  504  501 -4.7203303471e+01 -5.8248365702e+01 -1.7580850033e+02 1.9112732080e+02 0.0000000000e+00 0.0000e+00 -1.0000e+00
       21  1    1    2  505  502 -3.1226608288e+01 +1.2749046683e+00 -6.5380673839e+01 7.2466260830e+01 0.0000000000e+00 0.0000e+00 -1.0000e+00
<mgrwt>
<rscale>  4 0.35453754E+03</rscale>
<asrwt>0</asrwt>
<pdfrwt beam="1">  1       21 0.11092706E-01 0.35453754E+03</pdfrwt>
<pdfrwt beam="2">  1       21 0.39096404E+00 0.35453754E+03</pdfrwt>
<totfact> 0.55703482E+02</totfact>
</mgrwt>
</event>
<event>
 6      1 +2.5196620e+02 1.85744200e+02 7.54677100e-03 1.12691600e-01
       21 -1    0    0  501  502 +0.0000000000e+00 +0.0000000000e+00 +1.2812796643e+03 1.2812796643e+03 0.0000000000e+00 0.0000e+00 -1.0000e+00
       21 -1    0    0  504  503 -0.0000000000e+00 -0.0000000000e+00 -6.3945940534e+01 6.3945940534e+01 0.0000000000e+00 0.0000e+00 -1.0000e+00
        6  1    1    2  501    0 -9.4869421413e+01 -1.4596597578e+01 +9.4751178008e+02 9.6794671402e+02 1.7300000000e+02 0.0000e+00 -1.0000e+00
       -6  1    1    2    0  503 +6.1850287369e+01 -1.4607073949e+01 +1.2087247193e+02 2.2040412684e+02 1.7300000000e+02 0.0000e+00 -1.0000e+00
       21  1    1    2  504  505 +1.8652602149e+01 +1.0896607889e+01 +3.9926527771e+01 4.5395850585e+01 0.0000000000e+00 0.0000e+00 1.0000e+00
       21  1    1    2  505  502 +1.4366531895e+01 +1.8307063638e+01 +1.0902294402e+02 1.1147891344e+02 0.0000000000e+00 0.0000e+00 -1.0000e+00
<mgrwt>
<rscale>  4 0.18574424E+03</rscale>
<asrwt>0</asrwt>
<pdfrwt beam="1">  1       21 0.19711993E+00 0.18574424E+03</pdfrwt>
<pdfrwt beam="2">  1       21 0.98378380E-02 0.18574424E+03</pdfrwt>
<totfact> 0.11770830E+04</totfact>
</mgrwt>
</event>
<event>
 6      1 +2.5196620e+02 2.04702300e+02 7.54677100e-03 1.14954000e-01
       21 -1    0    0  501  502 +0.0000000000e+00 +0.0000000000e+00 +1.4958264582e+03 1.4958264582e+03 0.0000000000e+00 0.0000e+00 1.0000e+00
       21 -1    0    0  504  503 -0.0000000000e+00 -0.0000000000e+00 -2.3604729991e+02 2.3604729991e+02 0.0000000000e+00 0.0000e+00 1.0000e+00
        6  1    1    2  501    0 +7.6329941031e+00 +1.1875226929e+02 -1.0916364521e+02 2.3665600668e+02 1.7300000000e+02 0.0000e+00 1.0000e+00
       -6  1    1    2    0  503 -2.0743999324e+01 -8.5260883562e+01 +8.8918682311e+01 2.1338993378e+02 1.7300000000e+02 0.0000e+00 1.0000e+00
       21  1    1    2  504  505 -1.7453442640e+01 -3.0768670406e+01 +8.3367950421e+02 8.3442965520e+02 0.0000000000e+00 0.0000e+00 1.0000e+00
       21  1    1    2  505  502 +3.0564447862e+01 -2.7227153260e+00 +4.4634461699e+02 4.4739816245e+02 0.0000000000e+00 0.0000e+00 1.0000e+00
<mgrwt>
<rscale>  4 0.20470234E+03</rscale>
<asrwt>0</asrwt>
<pdfrwt beam="1">  1       21 0.23012714E+00 0.20470234E+03</pdfrwt>
<pdfrwt beam="2">  1       21 0.36314970E-01 0.20470234E+03</pdfrwt>
<totfact> 0.62906617E+02</totfact>
</mgrwt>
</event>
<event>
 6      1 +2.5196620e+02 3.41827300e+02 7.54677100e-03 9.49153200e-02
       21 -1    0    0  505  502 +0.0000000000e+00 +0.0000000000e+00 +7.9037289019e+02 7.9037289019e+02 0.0000000000e+00 0.0000e+00 -1.0000e+00
       21 -1    0    0  501  503 -0.0000000000e+00 -0.0000000000e+00 -4.8169750246e+02 4.8169750246e+02 0.0000000000e+00 0.0000e+00 -1.0000e+00
        6  1    1    2  501    0 +1.1384677144e+02 -4.8192597745e+01 +2.2598753048e+02 3.1029498510e+02 1.7300000000e+02 0.0000e+00 1.0000e+00
       -6  1    1    2    0  502 +6.6464235743e+01 -2.2295786958e+02 +5.6898682343e+01 2.9545586183e+02 1.7300000000e+02 0.0000e+00 -1.0000e+00
       21  1    1    2  504  503 -2.1769908069e+02 +2.5215117330e+02 -2.3147958342e+02 4.0565490441e+02 0.0000000000e+00 0.0000e+00 -1.0000e+00
       21  1    1    2  505  504 +3.7388073512e+01 +1.8999294018e+01 +2.5726875834e+02 2.6066464131e+02 0.0000000000e+00 0.0000e+00 -1.0000e+00
<mgrwt>
<rscale>  4 0.30666552E+03</rscale>
<asrwt>0</asrwt>
<pdfrwt beam="1">  1       21 0.12159583E+00 0.34182726E+03</pdfrwt>
<pdfrwt beam="2">  1       21 0.74107308E-01 0.34182726E+03</pdfrwt>
<totfact> 0.74223975E+02</totfact>
</mgrwt>
</event>
<event>
 6      1 +2.5196620e+02 3.35859300e+02 7.54677100e-03 1.16321900e-01
       21 -1    0    0  504  502 +0.0000000000e+00 +0.0000000000e+00 +1.8547889483e+03 1.8547889483e+03 0.0000000000e+00 0.0000e+00 -1.0000e+00
       21 -1    0    0  501  503 -0.0000000000e+00 -0.0000000000e+00 -1.8687644759e+02 1.8687644759e+02 0.0000000000e+00 0.0000e+00 1.0000e+00
        6  1    1    2  501    0 -1.7186202871e+02 +3.0126321219e+01 +5.0310839126e+02 5.5990285362e+02 1.7300000000e+02 0.0000e+00 1.0000e+00
       -6  1    1    2    0  502 -1.5454054713e+02 -9.0342186828e+01 +9.7341474739e+02 1.0047436299e+03 1.7300000000e+02 0.0000e+00 -1.0000e+00
       21  1    1    2  504  505 +3.1087819744e+02 +8.8822069714e+01 +2.5085947880e+02 4.0922498924e+02 0.0000000000e+00 0.0000e+00 1.0000e+00
       21  1    1    2  505  503 +1.5524378393e+01 -2.8606204105e+01 -5.9470116688e+01 6.7793923154e+01 0.0000000000e+00 0.0000e+00 1.0000e+00
<mgrwt>
<rscale>  4 0.30959411E+03</rscale>
<asrwt>0</asrwt>
<pdfrwt beam="1">  1       21 0.28535213E+00 0.33585926E+03</pdfrwt>
<pdfrwt beam="2">  1       21 0.28750224E-01 0.33585926E+03</pdfrwt>
<totfact> 0.41261000E+02</totfact>
</mgrwt>
</event>
<event>
 6      1 +2.5196620e+02 3.53654900e+02 7.54677100e-03 1.16321900e-01
       21 -1    0    0  505  502 +0.0000000000e+00 +0.0000000000e+00 +1.8317974164e+02 1.8317974164e+02 0.0000000000e+00 0.0000e+00 1.0000e+00
       21 -1    0    0  504  503 -0.0000000000e+00 -0.0000000000e+00 -1.0628095275e+03 1.0628095275e+03 0.0000000000e+00 0.0000e+00 -1.0000e+00
        6  1    1    2  501    0 +2.7238199258e+02 -1.7104744819e+02 -2.3022114659e+02 4.3171744897e+02 1.7300000000e+02 0.0000e+00 1.0000e+00
       -6  1    1    2    0  502 -2.2310034879e+02 +1.9395639908e+02 -2.9193765642e+02 4.5005493622e+02 1.7300000000e+02 0.0000e+00 -1.0000e+00
       21  1    1    2  504  501 -3.6214906291e+01 +7.0530085976e+00 -1.7602450000e+02 1.7984962876e+02 0.0000000000e+00 0.0000e+00 -1.0000e+00
       21  1    1    2  505  503 -1.3066737496e+01 -2.9961959493e+01 -1.8144648285e+02 1.8436725518e+02 0.0000000000e+00 0.0000e+00 -1.0000e+00
<mgrwt>
<rscale>  4 0.35365494E+03</rscale>
<asrwt>0</asrwt>
<pdfrwt beam="1">  1       21 0.28181499E-01 0.35365494E+03</pdfrwt>
<pdfrwt beam="2">  1       21 0.16350916E+00 0.35365494E+03</pdfrwt>
<totfact> 0.25548180E+03</totfact>
</mgrwt>
</event>
<event>
 6      1 +2.5196620e+02 2.53694200e+02 7.54677100e-03 9.28652600e-02
       21 -1    0    0  503  502 +0.0000000000e+00 +0.0000000000e+00 +5.3545429091e+02 5.3545429091e+02 0.0000000000e+00 0.0000e+00 -1.0000e+00
       21 -1    0    0  504  503 -0.0000000000e+00 -0.0000000000e+00 -3.8039224689e+02 3.8039224689e+02 0.0000000000e+00 0.0000e+00 1.0000e+00
        6  1    1    2  501    0 +1.6575686469e+01 -1.4731965777e+02 +6.9449950615e+01 2.3818087788e+02 1.7300000000e+02 0.0000e+00 -1.0000e+00
       -6  1    1    2    0  502 -7.7978139410e+01 +1.9520926141e+02 +3.1499518458e+02 4.1633905927e+02 1.7300000000e+02 0.0000e+00 -1.0000e+00
       21  1    1    2  504  505 -8.9836862199e+00 +2.2430008815e+01 -6.2870954931e+01 6.7354056207e+01 0.0000000000e+00 0.0000e+00 1.0000e+00
       21  1    1    2  505  501 +7.0386139161e+01 -7.0319612449e+01 -1.6651213625e+02 1.9397254444e+02 0.0000000000e+00 0.0000e+00 1.0000e+00
<mgrwt>
<rscale>  4 0.25369423E+03</rscale>
<asrwt>0</asrwt>
<pdfrwt beam="1">  1       21 0.82377583E-01 0.25369423E+03</pdfrwt>
<pdfrwt beam="2">  1       21 0.58521884E-01 0.25369423E+03</pdfrwt>
<totfact> 0.33618984E+03</totfact>
</mgrwt>
</event>
<event>
 6      1 +2.5196620e+02 2.03403900e+02 7.54677100e-03 1.16321900e-01
       21 -1    0    0  504  502 +0.0000000000e+00 +0.0000000000e+00 +2.4231240524e+02 2.4231240524e+02 0.0000000000e+00 0.0000e+00 -1.0000e+00
       21 -1    0    0  501  503 -0.0000000000e+00 -0.0000000000e+00 -7.0842637835e+02 7.0842637835e+02 0.0000000000e+00 0.0000e+00 -1.0000e+00
        6  1    1    2  501    0 +1.4917457065e+02 +2.3038756241e+01 -5.2421945674e+02 5.7229264860e+02 1.7300000000e+02 0.0000e+00 -1.0000e+00
       -6  1    1    2    0  502 -1.0035607157e+02 -2.3204741541e+01 +1.5288211142e+02 2.5280771572e+02 1.7300000000e+02 0.0000e+00 -1.0000e+00
       21  1    1    2  504  505 +8.8703843222e+00 +1.8509141352e+01 -1.4656509494e+01 2.5220731595e+01 0.0000000000e+00 0.0000e+00 1.0000e+00
       21  1    1    2  505  503 -5.7688883401e+01 -1.8343156052e+01 -8.0120118301e+01 1.0041768768e+02 0.0000000000e+00 0.0000e+00 1.0000e+00
<mgrwt>
<rscale>  4 0.20340389E+03</rscale>
<asrwt>0</asrwt>
<pdfrwt beam="1">  1       21 0.37278832E-01 0.20340389E+03</pdfrwt>
<pdfrwt beam="2">  1       21 0.10898867E+00 0.20340389E+03</pdfrwt>
<totfact> 0.45948646E+03</totfact>
</mgrwt>
</event>
<event>
 6      1 +2.5196620e+02 3.60125100e+02 7.54677100e-03 1.14954000e-01
       21 -1    0    0  501  502 +0.0000000000e+00 +0.0000000000e+00 +9.7608856394e+02 9.7608856394e+02 0.0000000000e+00 0.0000e+00 1.0000e+00
       21 -1    0    0  505  503 -0.0000000000e+00 -0.0000000000e+00 -4.7616113919e+02 4.7616113919e+02 0.0000000000e+00 0.0000e+00 1.0000e+00
        6  1    1    2  501    0 +3.0527902556e+01 -1.3948515610e+02 +1.5500099363e+02 2.7265797188e+02 1.7300000000e+02 0.0000e+00 -1.0000e+00
       -6  1    1    2    0  503 -1.3131274611e+02 -2.3921735087e+02 -2.1145113766e+02 3.8614577800e+02 1.7300000000e+02 0.0000e+00 1.0000e+00
       21  1    1    2  504  502 +4.1624353221e+01 +4.3617546112e+02 +5.5981076435e+02 7.1089360072e+02 0.0000000000e+00 0.0000e+00 1.0000e+00
       21  1    1    2  505  504 +5.9160490335e+01 -5.7472954149e+01 -3.4331955685e+00 8.2552352523e+01 0.0000000000e+00 0.0000e+00 1.0000e+00
<mgrwt>
<rscale>  4 0.32209771E+03</rscale>
<asrwt>0</asrwt>
<pdfrwt beam="1">  1       21 0.15016747E+00 0.36012508E+03</pdfrwt>
<pdfrwt beam="2">  1       21 0.73255560E-01 0.36012508E+03</pdfrwt>
<totfact> 0.43459813E+02</totfact>
</mgrwt>
</event>
<event>
 6      1 +2.5196620e+02 2.01708100e+02 7.54677100e-03 1.14954000e-01
       21 -1    0    0  501  502 +0.0000000000e+00 +0.0000000000e+00 +1.2543851826e+02 1.2543851826e+02 0.0000000000e+00 0.0000e+00 -1.0000e+00
       21 -1    0    0  504  503 -0.0000000000e+00 -0.0000000000e+00 -8.4661028114e+02 8.4661028114e+02 0.0000000000e+00 0.0000e+00 -1.0000e+00
        6  1    1    2  501    0 +1.3651127396e+02 -8.9185948195e+01 -4.5120341619e+02 5.1000292553e+02 1.7300000000e+02 0.0000e+00 -1.0000e+00
       -6  1    1    2    0  503 +9.9615403936e+00 +6.9592006945e+01 -2.4137093557e+02 3.0517406222e+02 1.7300000000e+02 0.0000e+00 -1.0000e+00
       21  1    1    2  504  505 -3.4177667404e+01 +1.1542482416e+01 -2.5625119597e+01 4.4249165007e+01 0.0000000000e+00 0.0000e+00 -1.0000e+00
       21  1    1    2  505  502 -1.1229514695e+02 +8.0514588340e+00 -2.9722915254e+00 1.1262264663e+02 0.0000000000e+00 0.0000e+00 -1.0000e+00
<mgrwt>
<rscale>  4 0.20170806E+03</rscale>
<asrwt>0</asrwt>
<pdfrwt beam="1">  1       21 0.19298233E-01 0.20170806E+03</pdfrwt>
<pdfrwt beam="2">  1       21 0.13024774E+00 0.20170806E+03</pdfrwt>
<totfact> 0.10544269E+04</totfact>
</mgrwt>
</event>
<event>
 6      1 +2.5196620e+02 4.85304200e+02 7.54677100e-03 1.16726300e-01
       21 -1    0    0  504  502 +0.0000000000e+00 +0.0000000000e+00 +2.0090050359e+03 2.0090050359e+03 0.0000000000e+00 0.0000e+00 -1.0000e+00
       21 -1    0    0  505  503 -0.0000000000e+00 -0.0000000000e+00 -1.8381133714e+02 1.8381133714e+02 0.0000000000e+00 0.0000e+00 1.0000e+00
        6  1    1    2  501    0 +1.2184490782e+02 +4.2483237820e+02 +1.2613817430e+03 1.3477171932e+03 1.7300000000e+02 0.0000e+00 -1.0000e+00
       -6  1    1    2    0  503 -1.2468660714e+02 -4.6281132635e+02 +5.6944532792e+02 7.6415839673e+02 1.7300000000e+02 0.0000e+00 -1.0000e+00
       21  1    1    2  504  501 +1.9225848957e+01 +2.1323180333e+01 +2.7924355743e+01 4.0050979155e+01 0.0000000000e+00 0.0000e+00 1.0000e+00
       21  1    1    2  505  502 -1.6384149635e+01 +1.6655767815e+01 -3.3557727965e+01 4.0889803948e+01 0.0000000000e+00 0.0000e+00 -1.0000e+00
<mgrwt>
<rscale>  4 0.48530421E+03</rscale>
<asrwt>0</asrwt>
<pdfrwt beam="1">  1       21 0.30907768E+00 0.48530421E+03</pdfrwt>
<pdfrwt beam="2">  1       21 0.28278669E-01 0.48530421E+03</pdfrwt>
<totfact> 0.27863983E+02</totfact>
</mgrwt>
</event>
<event>
 6      1 +2.5196620e+02 1.82775100e+02 7.54677100e-03 1.07655700e-01
       21 -1    0    0  501  502 +0.0000000000e+00 +0.0000000000e+00 +2.0490833895e+02 2.0490833895e+02 0.0000000000e+00 0.0000e+00 -1.0000e+00
       21 -1    0    0  502  503 -0.0000000000e+00 -0.0000000000e+00 -5.6330432478e+02 5.6330432478e+02 0.0000000000e+00 0.0000e+00 -1.0000e+00
        6  1    1    2  501    0 +6.8534871769e+01 -3.9752695169e+00 +1.0180219513e+02 2.1214504083e+02 1.7300000000e+02 0.0000e+00 -1.0000e+00
       -6  1    1    2    0  505 -7.6103367465e+01 -1.7715204702e+01 -2.0982033542e+02 2.8294721093e+02 1.7300000000e+02 0.0000e+00 -1.0000e+00
       21  1    1    2  504  503 +2.7664208817e+01 +5.0327144049e+00 -2.4482476344e+02 2.4643417266e+02 0.0000000000e+00 0.0000e+00 -1.0000e+00
       21  1    1    2  505  504 -2.0095713121e+01 +1.6657759814e+01 -5.5530821041e+00 2.6686239314e+01 0.0000000000e+00 0.0000e+00 -1.0000e+00
<mgrwt>
<rscale>  4 0.18277513E+03</rscale>
<asrwt>0</asrwt>
<pdfrwt beam="1">  1       21 0.31524360E-01 0.18277513E+03</pdfrwt>
<pdfrwt beam="2">  1       21 0.86662204E-01 0.18277513E+03</pdfrwt>
<totfact> 0.11161864E+04</totfact>
</mgrwt>
</event>
<event>
 6      1 +2.5196620e+02 2.55440900e+02 7.54677100e-03 1.14954000e-01
       21 -1    0    0  501  502 +0.0000000000e+00 +0.0000000000e+00 +2.5318783308e+02 2.5318783308e+02 0.0000000000e+00 0.0000e+00 -1.0000e+00
       21 -1    0    0  505  503 -0.0000000000e+00 -0.0000000000e+00 -6.6972055900e+02 6.6972055900e+02 0.0000000000e+00 0.0000e+00 -1.0000e+00
        6  1    1    2  501    0 -3.2100170066e+01 +2.0886938747e+02 -8.1794982875e+01 2.8508991768e+02 1.7300000000e+02 0.0000e+00 -1.0000e+00
       -6  1    1    2    0  503 -1.2988348676e+01 -1.8110492076e+02 -4.4153071265e+02 5.0778544656e+02 1.7300000000e+02 0.0000e+00 -1.0000e+00
       21  1    1    2  504  502 +1.8353518072e+01 -3.1162643398e+01 +9.2944937611e+01 9.9733261236e+01 0.0000000000e+00 0.0000e+00 -1.0000e+00
       21  1    1    2  505  504 +2.6735000669e+01 +3.3981766900e+00 +1.3848032000e+01 3.0299766598e+01 0.0000000000e+00 0.0000e+00 -1.0000e+00
<mgrwt>
<rscale>  4 0.25544095E+03</rscale>
<asrwt>0</asrwt>
<pdfrwt beam="1">  1       21 0.38951974E-01 0.25544095E+03</pdfrwt>
<pdfrwt beam="2">  1       21 0.10303393E+00 0.25544095E+03</pdfrwt>
<totfact> 0.46449228E+03</totfact>
</mgrwt>
</event>
<event>
 6      1 +2.5196620e+02 2.64527500e+02 7.54677100e-03 1.06301000e-01
       21 -1    0    0  505  502 +0.0000000000e+00 +0.0000000000e+00 +5.6228166961e+02 5.6228166961e+02 0.0000000000e+00 0.0000e+00 1.0000e+00
       21 -1    0    0  504  503 -0.0000000000e+00 -0.0000000000e+00 -4.4801253625e+02 4.4801253625e+02 0.0000000000e+00 0.0000e+00 -1.0000e+00
        6  1    1    2  501    0 -1.5543361022e+02 +1.1382909264e+01 -1.3408731667e+02 2.6869608539e+02 1.7300000000e+02 0.0000e+00 -1.0000e+00
       -6  1    1    2    0  502 +2.0823607601e+02 -8.2604098572e+00 +4.4972337574e+02 5.2498629735e+02 1.7300000000e+02 0.0000e+00 1.0000e+00
       21  1    1    2  504  501 -1.8904908608e+01 -1.6079148661e+01 -1.5856981922e+02 1.6050022479e+02 0.0000000000e+00 0.0000e+00 -1.0000e+00
       21  1    1    2  505  503 -3.3897557177e+01 +1.2956649254e+01 -4.2797106497e+01 5.6111598328e+01 0.0000000000e+00 0.0000e+00 -1.0000e+00
<mgrwt>
<rscale>  4 0.26452746E+03</rscale>
<asrwt>0</asrwt>
<pdfrwt beam="1">  1       21 0.86504872E-01 0.26452746E+03</pdfrwt>
<pdfrwt beam="2">  1       21 0.68925006E-01 0.26452746E+03</pdfrwt>
<totfact> 0.20861907E+03</totfact>
</mgrwt>
</event>
<event>
 6      1 +2.5196620e+02 2.43134200e+02 7.54677100e-03 1.09711200e-01
       21 -1    0    0  504  502 +0.0000000000e+00 +0.0000000000e+00 +4.5467724504e+02 4.5467724504e+02 0.0000000000e+00 0.0000e+00 -1.0000e+00
       21 -1    0    0  502  503 -0.0000000000e+00 -0.0000000000e+00 -2.4149155049e+02 2.4149155049e+02 0.0000000000e+00 0.0000e+00 1.0000e+00
        6  1    1    2  501    0 +1.0840418203e+02 +1.9728280815e+02 -1.1877011802e+01 2.8415143231e+02 1.7300000000e+02 0.0000e+00 1.0000e+00
       -6  1    1    2    0  503 -5.3721925892e+01 -9.9559591139e+01 +7.0990737015e+01 2.1855626793e+02 1.7300000000e+02 0.0000e+00 -1.0000e+00
       21  1    1    2  504  505 -1.0163067726e+01 -3.6339554463e+01 +7.4699193146e+01 8.3688832116e+01 0.0000000000e+00 0.0000e+00 1.0000e+00
       21  1    1    2  505  501 -4.4519188415e+01 -6.1383662544e+01 +7.9372776185e+01 1.0977226318e+02 0.0000000000e+00 0.0000e+00 1.0000e+00
<mgrwt>
<rscale>  4 0.24313418E+03</rscale>
<asrwt>0</asrwt>
<pdfrwt beam="1">  1       21 0.69950345E-01 0.24313418E+03</pdfrwt>
<pdfrwt beam="2">  1       21 0.37152546E-01 0.24313418E+03</pdfrwt>
<totfact> 0.12574448E+04</totfact>
</mgrwt>
</event>
<event>
 6      1 +2.5196620e+02 2.29685200e+02 7.54677100e-03 1.09079000e-01
       21 -1    0    0  503  502 +0.0000000000e+00 +0.0000000000e+00 +1.1167525134e+03 1.1167525134e+03 0.0000000000e+00 0.0000e+00 1.0000e+00
       21 -1    0    0  501  503 -0.0000000000e+00 -0.0000000000e+00 -1.9700945127e+02 1.9700945127e+02 0.0000000000e+00 0.0000e+00 1.0000e+00
        6  1    1    2  501    0 +3.3681702010e+01 +1.5836933299e+02 -9.5348277332e+01 2.5541260085e+02 1.7300000000e+02 0.0000e+00 1.0000e+00
       -6  1    1    2    0  504 -3.1375233972e+00 -6.1090211604e+01 +6.5743007177e+02 6.8255780508e+02 1.7300000000e+02 0.0000e+00 1.0000e+00
       21  1    1    2  504  505 -1.9181529869e+01 -6.6956619403e+01 +1.4711334877e+02 1.6276810915e+02 0.0000000000e+00 0.0000e+00 1.0000e+00
       21  1    1    2  505  502 -1.1362648744e+01 -3.0322501979e+01 +2.1054791892e+02 2.1302344959e+02 0.0000000000e+00 0.0000e+00 1.0000e+00
<mgrwt>
<rscale>  4 0.22968521E+03</rscale>
<asrwt>0</asrwt>
<pdfrwt beam="1">  1       21 0.17180807E+00 0.22968521E+03</pdfrwt>
<pdfrwt beam="2">  1       21 0.30309147E-01 0.22968521E+03</pdfrwt>
<totfact> 0.20919893E+03</totfact>
</mgrwt>
</event>
<event>
 6      1 +2.5196620e+02 1.85230100e+02 7.54677100e-03 1.14954000e-01
       21 -1    0    0  501  502 +0.0000000000e+00 +0.0000000000e+00 +2.3159186442e+02 2.3159186442e+02 0.0000000000e+00 0.0000e+00 1.0000e+00
       21 -1    0    0  504  503 -0.0000000000e+00 -0.0000000000e+00 -5.0361878527e+02 5.0361878527e+02 0.0000000000e+00 0.0000e+00 1.0000e+00
        6  1    1    2  501    0 -3.9195753382e+01 -8.2914261164e+01 +8.0030223174e+01 2.1152994684e+02 1.7300000000e+02 0.0000e+00 1.0000e+00
       -6  1    1    2    0  503 +4.2493124726e+01 -8.4740654396e+01 -2.6923009689e+02 3.3376711825e+02 1.7300000000e+02 0.0000e+00 -1.0000e+00
       21  1    1    2  504  505 +7.0901720651e+00 +1.2672884351e+02 -7.3499319826e+01 1.4667181165e+02 0.0000000000e+00 0.0000e+00 1.0000e+00
       21  1    1    2  505  502 -1.0387543410e+01 +4.0926072046e+01 -9.3277273023e+00 4.3241772950e+01 0.0000000000e+00 0.0000e+00 -1.0000e+00
<mgrwt>
<rscale>  4 0.18523005E+03</rscale>
<asrwt>0</asrwt>
<pdfrwt beam="1">  1       21 0.35629518E-01 0.18523005E+03</pdfrwt>
<pdfrwt beam="2">  1       21 0.77479813E-01 0.18523005E+03</pdfrwt>
<totfact> 0.11284297E+04</totfact>
</mgrwt>
</event>
<event>
 6      1 +2.5196620e+02 1.91532200e+02 7.54677100e-03 1.06301000e-01
       21 -1    0    0  505  502 +0.0000000000e+00 +0.0000000000e+00 +2.4737143940e+02 2.4737143940e+02 0.0000000000e+00 0.0000e+00 -1.0000e+00
       21 -1    0    0  501  503 -0.0000000000e+00 -0.0000000000e+00 -3.2530380510e+02 3.2530380510e+02 0.0000000000e+00 0.0000e+00 -1.0000e+00
        6  1    1    2  501    0 -7.2291878528e+01 +7.3858433352e+00 -5.0407160910e+01 1.9429500316e+02 1.7300000000e+02 0.0000e+00 1.0000e+00
       -6  1    1    2    0  502 +8.1238797159e+01 +6.0492258398e+01 +5.2962206065e+00 2.0053953586e+02 1.7300000000e+02 0.0000e+00 1.0000e+00
       21  1    1    2  504  503 -1.3438534600e+01 -3.6218643847e+01 -9.7946088038e+01 1.0528922327e+02 0.0000000000e+00 0.0000e+00 -1.0000e+00
       21  1    1    2  505  504 +4.4916159692e+00 -3.1659457887e+01 +6.5124662640e+01 7.2551482216e+01 0.0000000000e+00 0.0000e+00 1.0000e+00
<mgrwt>
<rscale>  4 0.19153223E+03</rscale>
<asrwt>0</asrwt>
<pdfrwt beam="1">  1       21 0.38057145E-01 0.19153223E+03</pdfrwt>
<pdfrwt beam="2">  1       21 0.50046739E-01 0.19153223E+03</pdfrwt>
<totfact> 0.25339350E+04</totfact>
</mgrwt>
</event>
<event>
 6      1 +2.5196620e+02 1.97887000e+02 7.54677100e-03 1.06301000e-01
       21 -1    0    0  504  502 +0.0000000000e+00 +0.0000000000e+00 +1.2161241943e+03 1.2161241943e+03 0.0000000000e+00 0.0000e+00 -1.0000e+00
       21 -1    0    0  501  503 -0.0000000000e+00 -0.0000000000e+00 -4.8761022204e+01 4.8761022204e+01 0.0000000000e+00 0.0000e+00 -1.0000e+00
        6  1    1    2  501    0 +7.3516085378e+01 +6.9143269452e+01 +3.1435550150e+02 3.7273822965e+02 1.7300000000e+02 0.0000e+00 -1.0000e+00
       -6  1    1    2    0  505 -7.1138679657e+01 -6.7037061613e+01 +5.9499483994e+02 6.2729780721e+02 1.7300000000e+02 0.0000e+00 -1.0000e+00
       21  1    1    2  504  503 -2.3137067354e+01 +4.4845647770e+00 +4.5672315912e+01 5.1394509899e+01 0.0000000000e+00 0.0000e+00 -1.0000e+00
       21  1    1    2  505  502 +2.0759661633e+01 -6.5907726158e+00 +2.1234051475e+02 2.1345466975e+02 0.0000000000e+00 0.0000e+00 -1.0000e+00
<mgrwt>
<rscale>  4 0.19788696E+03</rscale>
<asrwt>0</asrwt>
<pdfrwt beam="1">  1       21 0.18709601E+00 0.19788696E+03</pdfrwt>
<pdfrwt beam="2">  1       21 0.75016966E-02 0.19788696E+03</pdfrwt>
<totfact> 0.21793198E+04</totfact>
</mgrwt>
</event>
<event>
 6      1 +2.5196620e+02 1.74170300e+02 7.54677100e-03 1.16128000e-01
       21 -1    0    0  501  502 +0.0000000000e+00 +0.0000000000e+00 +2.7530202752e+02 2.7530202752e+02 0.0000000000e+00 0.0000e+00 -1.0000e+00
       21 -1    0    0  504  503 -0.0000000000e+00 -0.0000000000e+00 -3.3539450903e+02 3.3539450903e+02 0.0000000000e+00 0.0000e+00 -1.0000e+00
        6  1    1    2  501    0 -2.7136074647e+00 -1.5965621546e+01 +1.8366160010e+02 2.5282968198e+02 1.7300000000e+02 0.0000e+00 -1.0000e+00
       -6  1    1    2    0  503 -4.4038420427e+01 +3.4803359848e+01 -1.0604419058e+02 2.1053509609e+02 1.7300000000e+02 0.0000e+00 -1.0000e+00
       21  1    1    2  504  505 +2.2944055412e+01 -2.8821684160e+00 -7.2583180390e+01 7.6177783172e+01 0.0000000000e+00 0.0000e+00 -1.0000e+00
       21  1    1    2  505  502 +2.3807972480e+01 -1.5955569886e+01 -6.5126710640e+01 7.1153975313e+01 0.0000000000e+00 0.0000e+00 -1.0000e+00
<mgrwt>
<rscale>  4 0.17417035E+03</rscale>
<asrwt>0</asrwt>
<pdfrwt beam="1">  1       21 0.42354158E-01 0.17417035E+03</pdfrwt>
<pdfrwt beam="2">  1       21 0.51599155E-01 0.17417035E+03</pdfrwt>
<totfact> 0.19353335E+04</totfact>
</mgrwt>
</event>
<event>
 6      1 +2.5196620e+02 2.63773300e+02 7.54677100e-03 9.49153200e-02
       21 -1    0    0  503  502 +0.0000000000e+00 +0.0000000000e+00 +8.1124655161e+02 8.1124655161e+02 0.0000000000e+00 0.0000e+00 1.0000e+00
       21 -1    0    0  504  503 -0.0000000000e+00 -0.0000000000e+00 -3.5257325951e+02 3.5257325951e+02 0.0000000000e+00 0.0000e+00 1.0000e+00
        6  1    1    2  501    0 +1.7741771621e+02 -1.7064567986e+02 +1.0870119765e+01 3.0107167516e+02 1.7300000000e+02 0.0000e+00 1.0000e+00
       -6  1    1    2    0  505 -1.0521262214e+02 +1.3372536119e+02 +2.0363824273e+02 3.1678021085e+02 1.7300000000e+02 0.0000e+00 1.0000e+00
       21  1    1    2  504  501 -5.4613516032e+01 +2.6024564708e+01 -1.4455181807e+02 1.5670080475e+02 0.0000000000e+00 0.0000e+00 -1.0000e+00
       21  1    1    2  505  502 -1.7591578038e+01 +1.0895753962e+01 +3.8871674767e+02 3.8926712036e+02 0.0000000000e+00 0.0000e+00 1.0000e+00
<mgrwt>
<rscale>  4 0.26377328E+03</rscale>
<asrwt>0</asrwt>
<pdfrwt beam="1">  1       21 0.12480716E+00 0.26377328E+03</pdfrwt>
<pdfrwt beam="2">  1       21 0.54242040E-01 0.26377328E+03</pdfrwt>
<totfact> 0.14487445E+03</totfact>
</mgrwt>
</event>
<event>
 6      1 +2.5196620e+02 4.83554100e+02 7.54677100e-03 9.49153200e-02
       21 -1    0    0  505  502 +0.0000000000e+00 +0.0000000000e+00 +1.3431618328e+03 1.3431618328e+03 0.0000000000e+00 0.0000e+00 -1.0000e+00
       21 -1    0    0  501  503 -0.0000000000e+00 -0.0000000000e+00 -3.4482271305e+02 3.4482271305e+02 0.0000000000e+00 0.0000e+00 -1.0000e+00
        6  1    1    2  501    0 -1.4866721137e+02 +2.0433737998e+01 +2.3020514246e+02 3.2471970220e+02 1.7300000000e+02 0.0000e+00 1.0000e+00
       -6  1    1    2    0  502 -4.9993369811e+01 -4.6243129842e+02 +1.6623685959e+02 5.2336004459e+02 1.7300000000e+02 0.0000e+00 -1.0000e+00
       21  1    1    2  504  503 -2.8836523033e+01 +3.0424577135e+01 -3.0487126468e+01 5.1833047709e+01 0.0000000000e+00 0.0000e+00 1.0000e+00
       21  1    1    2  505  504 +2.2749710421e+02 +4.1157298329e+02 +6.3238424421e+02 7.8807175138e+02 0.0000000000e+00 0.0000e+00 -1.0000e+00
<mgrwt>
<rscale>  4 0.40262617E+03</rscale>
<asrwt>0</asrwt>
<pdfrwt beam="1">  1       21 0.20664028E+00 0.48355412E+03</pdfrwt>
<pdfrwt beam="2">  1       21 0.53049649E-01 0.48355412E+03</pdfrwt>
<totfact> 0.32874761E+02</totfact>
</mgrwt>
</event>
<event>
 6      1 +2.5196620e+02 2.15678500e+02 7.54677100e-03 1.16321900e-01
       21 -1    0    0  504  502 +0.0000000000e+00 +0.0000000000e+00 +1.1958096857e+03 1.1958096857e+03 0.0000000000e+00 0.0000e+00 1.0000e+00
       21 -1    0    0  505  503 -0.0000000000e+00 -0.0000000000e+00 -2.5004494822e+02 2.5004494822e+02 0.0000000000e+00 0.0000e+00 1.0000e+00
        6  1    1    2  501    0 +6.6716864725e+01 -8.0837664295e+01 +3.4645358077e+02 4.0117945066e+02 1.7300000000e+02 0.0000e+00 1.0000e+00
       -6  1    1    2    0  502 -1.3826117817e+02 +5.3822896580e+01 +7.9720038523e+02 8.2913841534e+02 1.7300000000e+02 0.0000e+00 1.0000e+00
       21  1    1    2  504  503 +4.8050311111e+01 +1.3275555573e+01 -1.6741043157e+02 1.7467491340e+02 0.0000000000e+00 0.0000e+00 1.0000e+00
       21  1    1    2  505  501 +2.3494002329e+01 +1.3739212141e+01 -3.0478796916e+01 4.0861854549e+01 0.0000000000e+00 0.0000e+00 1.0000e+00
<mgrwt>
<rscale>  4 0.21567853E+03</rscale>
<asrwt>0</asrwt>
<pdfrwt beam="1">  1       21 0.18397072E+00 0.21567853E+03</pdfrwt>
<pdfrwt beam="2">  1       21 0.38468454E-01 0.21567853E+03</pdfrwt>
<totfact> 0.10881217E+03</totfact>
</mgrwt>
</event>
<event>
 6      1 +2.5196620e+02 2.27521400e+02 7.54677100e-03 1.13287100e-01
       21 -1    0    0  504  502 +0.0000000000e+00 +0.0000000000e+00 +3.2240640374e+02 3.2240640374e+02 0.0000000000e+00 0.0000e+00 1.0000e+00
       21 -1    0    0  505  503 -0.0000000000e+00 -0.0000000000e+00 -3.3177367713e+02 3.3177367713e+02 0.0000000000e+00 0.0000e+00 1.0000e+00
        6  1    1    2  501    0 +6.1009890777e+01 -1.1592209934e+02 -2.6921235445e+01 2.1866388089e+02 1.7300000000e+02 0.0000e+00 1.0000e+00
       -6  1    1    2    0  503 -1.3962795281e+02 +1.0155419519e+02 -5.5854483471e+01 2.5071486412e+02 1.7300000000e+02 0.0000e+00 1.0000e+00
       21  1    1    2  504  501 +1.1777181592e+02 +2.0188187276e+01 +2.4663640590e+01 1.2200843700e+02 0.0000000000e+00 0.0000e+00 1.0000e+00
       21  1    1    2  505  502 -3.9153753889e+01 -5.8202831209e+00 +4.8744804942e+01 6.2792898866e+01 0.0000000000e+00 0.0000e+00 -1.0000e+00
<mgrwt>
<rscale>  4 0.22752136E+03</rscale>
<asrwt>0</asrwt>
<pdfrwt beam="1">  1       21 0.49600985E-01 0.22752136E+03</pdfrwt>
<pdfrwt beam="2">  1       21 0.51042104E-01 0.22752136E+03</pdfrwt>
<totfact> 0.13840430E+04</totfact>
</mgrwt>
</event>
<event>
 6      1 +2.5196620e+02 2.11231100e+02 7.54677100e-03 1.09711200e-01
       21 -1    0    0  504  502 +0.0000000000e+00 +0.0000000000e+00 +1.4645373236e+03 1.4645373236e+03 0.0000000000e+00 0.0000e+00 -1.0000e+00
       21 -1    0    0  505  503 -0.0000000000e+00 -0.0000000000e+00 -3.0852716237e+02 3.0852716237e+02 0.0000000000e+00 0.0000e+00 1.0000e+00
        6  1    1    2  501    0 +1.7439408127e+02 -6.8181127353e+01 +7.4620275352e+00 2.5504243483e+02 1.7300000000e+02 0.0000e+00 1.0000e+00
       -6  1    1    2    0  503 -8.4119575295e+01 +3.9805863544e+01 -1.1577786392e+02 2.2802219957e+02 1.7300000000e+02 0.0000e+00 1.0000e+00
       21  1    1    2  504  501 +5.5386254198e+01 +1.0230892085e+01 +8.2255159142e+02 8.2447767032e+02 0.0000000000e+00 0.0000e+00 -1.0000e+00
       21  1    1    2  505  502 -1.4566076017e+02 +1.8144371724e+01 +4.4177440623e+02 4.6552218129e+02 0.0000000000e+00 0.0000e+00 -1.0000e+00
<mgrwt>
<rscale>  4 0.21123107E+03</rscale>
<asrwt>0</asrwt>
<pdfrwt beam="1">  1       21 0.22531343E+00 0.21123107E+03</pdfrwt>
<pdfrwt beam="2">  1       21 0.47465718E-01 0.21123107E+03</pdfrwt>
<totfact> 0.38718464E+02</totfact>
</mgrwt>
</event>
<event>
 6      1 +2.5196620e+02 2.19541100e+02 7.54677100e-03 1.02776600e-01
       21 -1    0    0  501  502 +0.0000000000e+00 +0.0000000000e+00 +2.1729635377e+02 2.1729635377e+02 0.0000000000e+00 0.0000e+00 -1.0000e+00
       21 -1    0    0  502  503 -0.0000000000e+00 -0.0000000000e+00 -1.0914466743e+03 1.0914466743e+03 0.0000000000e+00 0.0000e+00 1.0000e+00
        6  1    1    2  501    0 -6.1235883840e+01 +1.1633325645e+02 +1.6784243562e+01 2.1793111494e+02 1.7300000000e+02 0.0000e+00 -1.0000e+00
       -6  1    1    2    0  504 +6.6588537448e+01 -1.2299279443e+02 -3.0661940597e+01 2.2456717347e+02 1.7300000000e+02 0.0000e+00 -1.0000e+00
       21  1    1    2  504  505 +9.9829237581e+00 -2.4452623468e+01 -6.4252194187e+01 6.9468942839e+01 0.0000000000e+00 0.0000e+00 1.0000e+00
       21  1    1    2  505  503 -1.5335577366e+01 +3.1112161443e+01 -7.9602042930e+02 7.9677579682e+02 0.0000000000e+00 0.0000e+00 1.0000e+00
<mgrwt>
<rscale>  4 0.21954109E+03</rscale>
<asrwt>0</asrwt>
<pdfrwt beam="1">  1       21 0.33430208E-01 0.21954109E+03</pdfrwt>
<pdfrwt beam="2">  1       21 0.16791488E+00 0.21954109E+03</pdfrwt>
<totfact> 0.18541746E+03</totfact>
</mgrwt>
</event>
<event>
 6      1 +2.5196620e+02 2.16972700e+02 7.54677100e-03 9.49153200e-02
       21 -1    0    0  505  502 +0.0000000000e+00 +0.0000000000e+00 +1.5274619966e+02 1.5274619966e+02 0.0000000000e+00 0.0000e+00 -1.0000e+00
       21 -1    0    0  504  503 -0.0000000000e+00 -0.0000000000e+00 -1.3467277643e+03 1.3467277643e+03 0.0000000000e+00 0.0000e+00 -1.0000e+00
        6  1    1    2  501    0 +8.7918698913e+01 +5.9239957883e+01 -2.8679774493e+02 3.5131327434e+02 1.7300000000e+02 0.0000e+00 1.0000e+00
       -6  1    1    2    0  502 -1.6414416157e+02 -7.8369145257e+00 -1.2797820849e+02 2.7076215551e+02 1.7300000000e+02 0.0000e+00 -1.0000e+00
       21  1    1    2  504  501 +5.0387794702e+01 -5.5602798424e+01 -8.2298034204e+02 8.2639412173e+02 0.0000000000e+00 0.0000e+00 -1.0000e+00
       21  1    1    2  505  503 +2.5837667955e+01 +4.1997550663e+00 +4.3774730806e+01 5.1004412409e+01 0.0000000000e+00 0.0000e+00 1.0000e+00
<mgrwt>
<rscale>  4 0.21697268E+03</rscale>
<asrwt>0</asrwt>
<pdfrwt beam="1">  1       21 0.23499415E-01 0.21697268E+03</pdfrwt>
<pdfrwt beam="2">  1       21 0.20718889E+00 0.21697268E+03</pdfrwt>
<totfact> 0.20094061E+03</totfact>
</mgrwt>
</event>
<event>
 6      1 +2.5196620e+02 2.14516200e+02 7.54677100e-03 9.49153200e-02
       21 -1    0    0  505  502 +0.0000000000e+00 +0.0000000000e+00 +8.5892394903e+01 8.5892394903e+01 0.0000000000e+00 0.0000e+00 1.0000e+00
       21 -1    0    0  504  503 -0.0000000000e+00 -0.0000000000e+00 -1.0457327108e+03 1.0457327108e+03 0.0000000000e+00 0.0000e+00 1.0000e+00
        6  1    1    2  501    0 +8.2854310181e+01 -2.9421259482e+01 -3.9451642748e+02 4.3966198241e+02 1.7300000000e+02 0.0000e+00 1.0000e+00
       -6  1    1    2    0  502 -1.2911034069e+02 +1.3479152627e+02 -3.5804739883e+02 4.3927801611e+02 1.7300000000e+02 0.0000e+00 1.0000e+00
       21  1    1    2  504  501 +2.5596226502e+00 -4.3800297458e+01 -1.5439389552e+02 1.6050698645e+02 0.0000000000e+00 0.0000e+00 1.0000e+00
       21  1    1    2  505  503 +4.3696407857e+01 -6.1569969330e+01 -5.2882594016e+01 9.2178120684e+01 0.0000000000e+00 0.0000e+00 1.0000e+00
<mgrwt>
<rscale>  4 0.21451620E+03</rscale>
<asrwt>0</asrwt>
<pdfrwt beam="1">  1       21 0.13214215E-01 0.21451620E+03</pdfrwt>
<pdfrwt beam="2">  1       21 0.16088195E+00 0.21451620E+03</pdfrwt>
<totfact> 0.12045111E+04</totfact>
</mgrwt>
</event>
<event>
 6      1 +2.5196620e+02 1.81309300e+02 7.54677100e-03 9.49153200e-02
       21 -1    0    0  505  502 +0.0000000000e+00 +0.0000000000e+00 +2.2011353123e+02 2.2011353123e+02 0.0000000000e+00 0.0000e+00 -1.0000e+00
       21 -1    0    0  501  503 -0.0000000000e+00 -0.0000000000e+00 -3.4632509493e+02 3.4632509493e+02 0.0000000000e+00 0.0000e+00 -1.0000e+00
        6  1    1    2  501    0 -4.0437779731e+00 -5.3525407158e+01 -1.9986285693e+02 2.6973224303e+02 1.7300000000e+02 0.0000e+00 -1.0000e+00
       -6  1    1    2    0  502 -5.0109512056e+01 +2.9592005882e+01 +8.8567655064e+01 2.0287897756e+02 1.7300000000e+02 0.0000e+00 -1.0000e+00
       21  1    1    2  504  503 +3.8222516459e+01 +5.0460091454e+00 -4.2104086910e+01 5.7089203071e+01 0.0000000000e+00 0.0000e+00 1.0000e+00
       21  1    1    2  505  504 +1.5930773570e+01 +1.8887392131e+01 +2.7187725077e+01 3.6738202499e+01 0.0000000000e+00 0.0000e+00 -1.0000e+00
<mgrwt>
<rscale>  4 0.18130930E+03</rscale>
<asrwt>0</asrwt>
<pdfrwt beam="1">  1       21 0.33863620E-01 0.18130930E+03</pdfrwt>
<pdfrwt beam="2">  1       21 0.53280783E-01 0.18130930E+03</pdfrwt>
<totfact> 0.28195779E+04</totfact>
</mgrwt>
</event>
<event>
 6      1 +2.5196620e+02 2.12333700e+02 7.54677100e-03 1.16558800e-01
       21 -1    0    0  505  502 +0.0000000000e+00 +0.0000000000e+00 +3.3310867470e+02 3.3310867470e+02 0.0000000000e+00 0.0000e+00 1.0000e+00
       21 -1    0    0  504  503 -0.0000000000e+00 -0.0000000000e+00 -4.0880261813e+02 4.0880261813e+02 0.0000000000e+00 0.0000e+00 1.0000e+00
        6  1    1    2  501    0 +1.4665588838e+02 -2.2435176390e+01 -1.0961767117e+02 2.5289586902e+02 1.7300000000e+02 0.0000e+00 1.0000e+00
       -6  1    1    2    0  502 -3.9728961095e+01 +1.3582911849e+02 -4.5155823789e+01 2.2802628840e+02 1.7300000000e+02 0.0000e+00 1.0000e+00
       21  1    1    2  504  501 -1.0793885975e+02 -1.5237367919e+02 +1.6767580506e+01 1.8748249867e+02 0.0000000000e+00 0.0000e+00 1.0000e+00
       21  1    1    2  505  503 +1.0119324624e+00 +3.8979737092e+01 +6.2311971026e+01 7.3506636736e+01 0.0000000000e+00 0.0000e+00 -1.0000e+00
<mgrwt>
<rscale>  4 0.21233370E+03</rscale>
<asrwt>0</asrwt>
<pdfrwt beam="1">  1       21 0.51247488E-01 0.21233370E+03</pdfrwt>
<pdfrwt beam="2">  1       21 0.62892711E-01 0.21233370E+03</pdfrwt>
<totfact> 0.83570824E+03</totfact>
</mgrwt>
</event>
<event>
 6      1 +2.5196620e+02 2.39714600e+02 7.54677100e-03 1.16321900e-01
       21 -1    0    0  504  502 +0.0000000000e+00 +0.0000000000e+00 +2.4918014992e+02 2.4918014992e+02 0.0000000000e+00 0.0000e+00 -1.0000e+00
       21 -1    0    0  501  503 -0.0000000000e+00 -0.0000000000e+00 -4.1678459426e+02 4.1678459426e+02 0.0000000000e+00 0.0000e+00 1.0000e+00
        6  1    1    2  501    0 +1.0603009571e+02 +1.1954786345e+02 -1.1754394467e+01 2.3579914894e+02 1.7300000000e+02 0.0000e+00 -1.0000e+00
       -6  1    1    2    0  502 -1.1404423317e+02 -1.2809887216e+02 +1.9628117811e+01 2.4439654493e+02 1.7300000000e+02 0.0000e+00 1.0000e+00
       21  1    1    2  504  505 -7.2284865577e+00 +2.4141271046e+01 -3.2436934552e+01 4.1075621830e+01 0.0000000000e+00 0.0000e+00 -1.0000e+00
       21  1    1    2  505  503 +1.5242624020e+01 -1.5590262344e+01 -1.4304123314e+02 1.4469342848e+02 0.0000000000e+00 0.0000e+00 -1.0000e+00
<mgrwt>
<rscale>  4 0.23971463E+03</rscale>
<asrwt>0</asrwt>
<pdfrwt beam="1">  1       21 0.38335408E-01 0.23971463E+03</pdfrwt>
<pdfrwt beam="2">  1       21 0.64120707E-01 0.23971463E+03</pdfrwt>
<totfact> 0.14322877E+04</totfact>
</mgrwt>
</event>
<event>
 6      1 +2.5196620e+02 2.38618100e+02 7.54677100e-03 1.13287100e-01
       21 -1    0    0  505  502 +0.0000000000e+00 +0.0000000000e+00 +1.3235220838e+03 1.3235220838e+03 0.0000000000e+00 0.0000e+00 -1.0000e+00
       21 -1    0    0  502  503 -0.0000000000e+00 -0.0000000000e+00 -7.5092893366e+01 7.5092893366e+01 0.0000000000e+00 0.0000e+00 1.0000e+00
        6  1    1    2  501    0 +1.4843498750e+02 +1.9821339108e+01 +3.2658728766e+02 3.9876570497e+02 1.7300000000e+02 0.0000e+00 1.0000e+00
       -6  1    1    2    0  503 -1.8529679156e+02 +4.3762447320e+00 +4.5988010847e+02 5.2514071129e+02 1.7300000000e+02 0.0000e+00 1.0000e+00
       21  1    1    2  504  501 +6.7620599873e+01 -8.6992449677e+00 +2.2041337897e+02 2.3071688282e+02 0.0000000000e+00 0.0000e+00 -1.0000e+00
       21  1    1    2  505  504 -3.0758795808e+01 -1.5498338873e+01 +2.4154841531e+02 2.4399167807e+02 0.0000000000e+00 0.0000e+00 -1.0000e+00
<mgrwt>
<rscale>  4 0.23861810E+03</rscale>
<asrwt>0</asrwt>
<pdfrwt beam="1">  1       21 0.20361876E+00 0.23861810E+03</pdfrwt>
<pdfrwt beam="2">  1       21 0.11552754E-01 0.23861810E+03</pdfrwt>
<totfact> 0.77024567E+03</totfact>
</mgrwt>
</event>
<event>
 6      1 +2.5196620e+02 1.78078900e+02 7.54677100e-03 9.49153200e-02
       21 -1    0    0  503  502 +0.0000000000e+00 +0.0000000000e+00 +9.1002862893e+02 9.1002862893e+02 0.0000000000e+00 0.0000e+00 -1.0000e+00
       21 -1    0    0  504  503 -0.0000000000e+00 -0.0000000000e+00 -1.9839365643e+02 1.9839365643e+02 0.0000000000e+00 0.0000e+00 -1.0000e+00
        6  1    1    2  501    0 -1.9174558867e+01 -5.7968030647e+00 +5.1713524512e+02 5.4567309662e+02 1.7300000000e+02 0.0000e+00 -1.0000e+00
       -6  1    1    2    0  505 -2.8474582953e+01 -3.3406693152e+01 +7.9653086714e+01 1.9544928561e+02 1.7300000000e+02 0.0000e+00 -1.0000e+00
       21  1    1    2  504  501 +1.1558479658e+02 +8.7527763582e+01 -7.2601611754e+01 1.6214792206e+02 0.0000000000e+00 0.0000e+00 -1.0000e+00
       21  1    1    2  505  502 -6.7935654760e+01 -4.8324267365e+01 +1.8744825242e+02 2.0515198107e+02 0.0000000000e+00 0.0000e+00 -1.0000e+00
<mgrwt>
<rscale>  4 0.17807895E+03</rscale>
<asrwt>0</asrwt>
<pdfrwt beam="1">  1       21 0.14000440E+00 0.17807895E+03</pdfrwt>
<pdfrwt beam="2">  1       21 0.30522102E-01 0.17807895E+03</pdfrwt>
<totfact> 0.37346729E+03</totfact>
</mgrwt>
</event>
<event>
 6      1 +2.5196620e+02 5.68336600e+02 7.54677100e-03 1.16464000e-01
       21 -1    0    0  505  502 +0.0000000000e+00 +0.0000000000e+00 +1.1651280737e+03 1.1651280737e+03 0.0000000000e+00 0.0000e+00 1.0000e+00
       21 -1    0    0  502  503 -0.0000000000e+00 -0.0000000000e+00 -1.3162098348e+03 1.3162098348e+03 0.0000000000e+00 0.0000e+00 1.0000e+00
        6  1    1    2  501    0 -1.3708808579e+02 -9.1902809191e+01 +2.1224577285e+02 3.1971321164e+02 1.7300000000e+02 0.0000e+00 -1.0000e+00
       -6  1    1    2    0  503 +3.7452424419e+02 -4.1218104061e+02 -1.0715898904e+03 1.2199981611e+03 1.7300000000e+02 0.0000e+00 1.0000e+00
       21  1    1    2  504  501 -1.4441042565e+02 +4.4106169730e+01 +1.6183058906e+02 2.2133428293e+02 0.0000000000e+00 0.0000e+00 1.0000e+00
       21  1    1    2  505  504 -9.3025732753e+01 +4.5997768008e+02 +5.4643176744e+02 7.2029225290e+02 0.0000000000e+00 0.0000e+00 1.0000e+00
<mgrwt>
<rscale>  4 0.46729924E+03</rscale>
<asrwt>0</asrwt>
<pdfrwt beam="1">  1       21 0.17925047E+00 0.56833656E+03</pdfrwt>
<pdfrwt beam="2">  1       21 0.20249382E+00 0.56833656E+03</pdfrwt>
<totfact> 0.16804996E+01</totfact>
</mgrwt>
</event>
<event>
 6      1 +2.5196620e+02 1.96632500e+02 7.54677100e-03 1.06301000e-01
       21 -1    0    0  501  502 +0.0000000000e+00 +0.0000000000e+00 +2.0731213378e+03 2.0731213378e+03 0.0000000000e+00 0.0000e+00 1.0000e+00
       21 -1    0    0  504  503 -0.0000000000e+00 -0.0000000000e+00 -3.7340755080e+01 3.7340755080e+01 0.0000000000e+00 0.0000e+00 -1.0000e+00
        6  1    1    2  501    0 -1.2719507487e+02 -5.2000350093e+00 +1.2477739625e+03 1.2661257793e+03 1.7300000000e+02 0.0000e+00 -1.0000e+00
       -6  1    1    2    0  503 +7.2237504474e+01 +5.7706776313e+01 +4.0391385094e+02 4.4902530893e+02 1.7300000000e+02 0.0000e+00 -1.0000e+00
       21  1    1    2  504  505 +2.9277827981e+00 -3.0769662070e+01 +7.5041007091e+01 8.1157234805e+01 0.0000000000e+00 0.0000e+00 -1.0000e+00
       21  1    1    2  505  502 +5.2029787597e+01 -2.1737079233e+01 +3.0905176222e+02 3.1415376990e+02 0.0000000000e+00 0.0000e+00 1.0000e+00
<mgrwt>
<rscale>  4 0.19663251E+03</rscale>
<asrwt>0</asrwt>
<pdfrwt beam="1">  1       21 0.31894165E+00 0.19663251E+03</pdfrwt>
<pdfrwt beam="2">  1       21 0.57447332E-02 0.19663251E+03</pdfrwt>
<totfact> 0.56113406E+03</totfact>
</mgrwt>
</event>
<event>
 6      1 +2.5196620e+02 2.18018400e+02 7.54677100e-03 9.49153200e-02
       21 -1    0    0  505  502 +0.0000000000e+00 +0.0000000000e+00 +3.9658893966e+02 3.9658893966e+02 0.0000000000e+00 0.0000e+00 -1.0000e+00
       21 -1    0    0  501  503 -0.0000000000e+00 -0.0000000000e+00 -5.8392290151e+02 5.8392290151e+02 0.0000000000e+00 0.0000e+00 1.0000e+00
        6  1    1    2  501    0 -1.3246696397e+02 -7.0435085982e+01 +3.3974639316e+01 2.3149918790e+02 1.7300000000e+02 0.0000e+00 -1.0000e+00
       -6  1    1    2    0  502 +1.0816378344e+02 +3.8001773237e+01 -2.1973467073e+02 3.0225132644e+02 1.7300000000e+02 0.0000e+00 1.0000e+00
       21  1    1    2  504  503 +2.2239259614e+01 -2.9610787728e+00 -2.2218732162e+02 2.2331717029e+02 0.0000000000e+00 0.0000e+00 1.0000e+00
       21  1    1    2  505  504 +2.0639209242e+00 +3.5394391518e+01 +2.2061339119e+02 2.2344415654e+02 0.0000000000e+00 0.0000e+00 -1.0000e+00
<mgrwt>
<rscale>  4 0.21801841E+03</rscale>
<asrwt>0</asrwt>
<pdfrwt beam="1">  1       21 0.61013683E-01 0.21801841E+03</pdfrwt>
<pdfrwt beam="2">  1       21 0.89834293E-01 0.21801841E+03</pdfrwt>
<totfact> 0.25814233E+03</totfact>
</mgrwt>
</event>
<event>
 6      1 +2.5196620e+02 2.13294700e+02 7.54677100e-03 1.06301000e-01
       21 -1    0    0  503  502 +0.0000000000e+00 +0.0000000000e+00 +3.2382231919e+02 3.2382231919e+02 0.0000000000e+00 0.0000e+00 -1.0000e+00
       21 -1    0    0  504  503 -0.0000000000e+00 -0.0000000000e+00 -6.3231474383e+02 6.3231474383e+02 0.0000000000e+00 0.0000e+00 -1.0000e+00
        6  1    1    2  501    0 -1.0507818056e+02 -1.0378911127e+02 -4.6928300220e+01 2.3226034747e+02 1.7300000000e+02 0.0000e+00 -1.0000e+00
       -6  1    1    2    0  505 +6.0909731633e+01 +1.0275806661e+02 +6.0779219933e+01 2.1884316127e+02 1.7300000000e+02 0.0000e+00 -1.0000e+00
       21  1    1    2  504  501 +4.7837845260e+00 +5.6217312801e+01 -3.9884297655e+02 4.0281384136e+02 0.0000000000e+00 0.0000e+00 -1.0000e+00
       21  1    1    2  505  502 +3.9384664397e+01 -5.5186268143e+01 +7.6499632200e+01 1.0221971291e+02 0.0000000000e+00 0.0000e+00 -1.0000e+00
<mgrwt>
<rscale>  4 0.21329471E+03</rscale>
<asrwt>0</asrwt>
<pdfrwt beam="1">  1       21 0.49818819E-01 0.21329471E+03</pdfrwt>
<pdfrwt beam="2">  1       21 0.97279191E-01 0.21329471E+03</pdfrwt>
<totfact> 0.33073827E+03</totfact>
</mgrwt>
</event>
<event>
 6      1 +2.5196620e+02 2.80672000e+02 7.54677100e-03 1.06301000e-01
       21 -1    0    0  501  502 +0.0000000000e+00 +0.0000000000e+00 +4.2167661656e+02 4.2167661656e+02 0.0000000000e+00 0.0000e+00 1.0000e+00
       21 -1    0    0  505  503 -0.0000000000e+00 -0.0000000000e+00 -1.1397878839e+03 1.1397878839e+03 0.0000000000e+00 0.0000e+00 -1.0000e+00
        6  1    1    2  501    0 +1.3692062742e+00 -2.4592657562e+02 -2.9060578654e+02 4.1816561132e+02 1.7300000000e+02 0.0000e+00 -1.0000e+00
       -6  1    1    2    0  504 +2.5209703023e+02 +8.9143674841e+01 -5.6172295863e+02 6.4572532060e+02 1.7300000000e+02 0.0000e+00 1.0000e+00
       21  1    1    2  504  503 -2.1377086837e+01 +9.3515844837e-01 -1.1868234935e+02 1.2059583082e+02 0.0000000000e+00 0.0000e+00 -1.0000e+00
       21  1    1    2  505  502 -2.3208914967e+02 +1.5584774233e+02 +2.5289982715e+02 3.7697773775e+02 0.0000000000e+00 0.0000e+00 1.0000e+00
<mgrwt>
<rscale>  4 0.27883085E+03</rscale>
<asrwt>0</asrwt>
<pdfrwt beam="1">  1       21 0.64873326E-01 0.28067197E+03</pdfrwt>
<pdfrwt beam="2">  1       21 0.17535198E+00 0.28067197E+03</pdfrwt>
<totfact> 0.39240549E+02</totfact>
</mgrwt>
</event>
<event>
 6      1 +2.5196620e+02 1.82654500e+02 7.54677100e-03 1.16321900e-01
       21 -1    0    0  504  502 +0.0000000000e+00 +0.0000000000e+00 +4.5957791925e+02 4.5957791925e+02 0.0000000000e+00 0.0000e+00 -1.0000e+00
       21 -1    0    0  505  503 -0.0000000000e+00 -0.0000000000e+00 -7.1914308977e+02 7.1914308977e+02 0.0000000000e+00 0.0000e+00 1.0000e+00
        6  1    1    2  501    0 +1.1341261657e+02 +5.1339837976e+01 -9.2061149813e+00 2.1333530677e+02 1.7300000000e+02 0.0000e+00 -1.0000e+00
       -6  1    1    2    0  502 -4.3682038899e+01 -1.1417774900e+01 +3.2276597813e+02 3.6897881070e+02 1.7300000000e+02 0.0000e+00 -1.0000e+00
       21  1    1    2  504  503 -6.2791226655e+01 -7.4153529685e+01 -2.0757234888e+02 2.2918936303e+02 0.0000000000e+00 0.0000e+00 1.0000e+00
       21  1    1    2  505  501 -6.9393510173e+00 +3.4231466609e+01 -3.6555268478e+02 3.6721752852e+02 0.0000000000e+00 0.0000e+00 1.0000e+00
<mgrwt>
<rscale>  4 0.18265448E+03</rscale>
<asrwt>0</asrwt>
<pdfrwt beam="1">  1       21 0.70704296E-01 0.18265448E+03</pdfrwt>
<pdfrwt beam="2">  1       21 0.11063740E+00 0.18265448E+03</pdfrwt>
<totfact> 0.11791340E+03</totfact>
</mgrwt>
</event>
<event>
 6      1 +2.5196620e+02 3.01705900e+02 7.54677100e-03 1.13287100e-01
       21 -1    0    0  505  502 +0.0000000000e+00 +0.0000000000e+00 +6.1356659510e+02 6.1356659510e+02 0.0000000000e+00 0.0000e+00 -1.0000e+00
       21 -1    0    0  502  503 -0.0000000000e+00 -0.0000000000e+00 -2.4478013775e+02 2.4478013775e+02 0.0000000000e+00 0.0000e+00 1.0000e+00
        6  1    1    2  501    0 -4.2102488990e+01 -2.1571262893e+02 -1.3527445714e+01 2.8002955138e+02 1.7300000000e+02 0.0000e+00 1.0000e+00
       -6  1    1    2    0  503 +8.6285729182e+00 +2.7549201387e+02 +2.6367488137e+02 4.1883617924e+02 1.7300000000e+02 0.0000e+00 -1.0000e+00
       21  1    1    2  504  501 +3.5720152949e+01 -3.3322179417e+01 +1.2991351136e+01 5.0547721731e+01 0.0000000000e+00 0.0000e+00 -1.0000e+00
       21  1    1    2  505  504 -2.2462368773e+00 -2.6457205521e+01 +1.0564767057e+02 1.0893328050e+02 0.0000000000e+00 0.0000e+00 -1.0000e+00
<mgrwt>
<rscale>  4 0.30170591E+03</rscale>
<asrwt>0</asrwt>
<pdfrwt beam="1">  1       21 0.94394860E-01 0.30170591E+03</pdfrwt>
<pdfrwt beam="2">  1       21 0.37658483E-01 0.30170591E+03</pdfrwt>
<totfact> 0.59759178E+03</totfact>
</mgrwt>
</event>
<event>
 6      1 +2.5196620e+02 2.37079100e+02 7.54677100e-03 1.16558800e-01
       21 -1    0    0  505  502 +0.0000000000e+00 +0.0000000000e+00 +6.9244991985e+02 6.9244991985e+02 0.0000000000e+00 0.0000e+00 1.0000e+00
       21 -1    0    0  504  503 -0.0000000000e+00 -0.0000000000e+00 -1.6956584584e+02 1.6956584584e+02 0.0000000000e+00 0.0000e+00 1.0000e+00
        6  1    1    2  501    0 -1.0185654629e+02 +1.3691370166e+02 +5.8856930813e+01 2.5002651065e+02 1.7300000000e+02 0.0000e+00 1.0000e+00
       -6  1    1    2    0  502 +1.5472906762e+02 -5.6775928781e+01 +2.1681835940e+02 3.2265119158e+02 1.7300000000e+02 0.0000e+00 1.0000e+00
       21  1    1    2  504  501 +1.4059089243e+01 +1.6290093421e+01 +8.1378941707e+00 2.3005444042e+01 0.0000000000e+00 0.0000e+00 1.0000e+00
       21  1    1    2  505  503 -6.6931610572e+01 -9.6427866303e+01 +2.3907088963e+02 2.6633261941e+02 0.0000000000e+00 0.0000e+00 1.0000e+00
<mgrwt>
<rscale>  4 0.23707909E+03</rscale>
<asrwt>0</asrwt>
<pdfrwt beam="1">  1       21 0.10653076E+00 0.23707909E+03</pdfrwt>
<pdfrwt beam="2">  1       21 0.26087054E-01 0.23707909E+03</pdfrwt>
<totfact> 0.95643916E+03</totfact>
</mgrwt>
</event>
<event>
 6      1 +2.5196620e+02 2.21152700e+02 7.54677100e-03 1.15334700e-01
       21 -1    0    0  503  502 +0.0000000000e+00 +0.0000000000e+00 +3.0161868267e+02 3.0161868267e+02 0.0000000000e+00 0.0000e+00 1.0000e+00
       21 -1    0    0  505  503 -0.0000000000e+00 -0.0000000000e+00 -1.3513420831e+03 1.3513420831e+03 0.0000000000e+00 0.0000e+00 1.0000e+00
        6  1    1    2  501    0 -5.9784227481e+01 -1.4886266450e+02 +1.6763980926e+02 2.8942417381e+02 1.7300000000e+02 0.0000e+00 1.0000e+00
       -6  1    1    2    0  504 +1.3097602386e+02 +7.3288449310e+01 -1.8446830407e+02 2.9408072163e+02 1.7300000000e+02 0.0000e+00 -1.0000e+00
       21  1    1    2  504  502 -3.5941325863e+00 +3.1464786992e+01 +1.7020314160e+00 3.1715099250e+01 0.0000000000e+00 0.0000e+00 1.0000e+00
       21  1    1    2  505  501 -6.7597663792e+01 +4.4109428200e+01 -1.0345969370e+03 1.0377407711e+03 0.0000000000e+00 0.0000e+00 1.0000e+00
<mgrwt>
<rscale>  4 0.22115272E+03</rscale>
<asrwt>0</asrwt>
<pdfrwt beam="1">  1       21 0.46402874E-01 0.22115272E+03</pdfrwt>
<pdfrwt beam="2">  1       21 0.20789878E+00 0.22115272E+03</pdfrwt>
<totfact> 0.51476588E+02</totfact>
</mgrwt>
</event>
<event>
 6      1 +2.5196620e+02 2.49014800e+02 7.54677100e-03 1.06301000e-01
       21 -1    0    0  501  502 +0.0000000000e+00 +0.0000000000e+00 +4.9384239007e+02 4.9384239007e+02 0.0000000000e+00 0.0000e+00 -1.0000e+00
       21 -1    0    0  505  503 -0.0000000000e+00 -0.0000000000e+00 -3.2304975489e+02 3.2304975489e+02 0.0000000000e+00 0.0000e+00 -1.0000e+00
        6  1    1    2  501    0 -1.3682412522e+02 +1.0689893851e+02 +4.0184909922e+01 2.4837884628e+02 1.7300000000e+02 0.0000e+00 -1.0000e+00
       -6  1    1    2    0  504 +1.0832269852e+02 -1.5187255205e+02 -8.5413340147e+00 2.5456047114e+02 1.7300000000e+02 0.0000e+00 -1.0000e+00
       21  1    1    2  504  503 +2.2598635559e+01 +1.4320464045e+01 -8.4243528191e+01 8.8389739572e+01 0.0000000000e+00 0.0000e+00 -1.0000e+00
       21  1    1    2  505  502 +5.9027911399e+00 +3.0653149501e+01 +2.2339258747e+02 2.2556308796e+02 0.0000000000e+00 0.0000e+00 -1.0000e+00
<mgrwt>
<rscale>  4 0.24901483E+03</rscale>
<asrwt>0</asrwt>
<pdfrwt beam="1">  1       21 0.75975753E-01 0.24901483E+03</pdfrwt>
<pdfrwt beam="2">  1       21 0.49699962E-01 0.24901483E+03</pdfrwt>
<totfact> 0.57328457E+03</totfact>
</mgrwt>
</event>
<event>
 6      1 +2.5196620e+02 2.54344100e+02 7.54677100e-03 1.06301000e-01
       21 -1    0    0  505  502 +0.0000000000e+00 +0.0000000000e+00 +1.9439793318e+02 1.9439793318e+02 0.0000000000e+00 0.0000e+00 -1.0000e+00
       21 -1    0    0  504  503 -0.0000000000e+00 -0.0000000000e+00 -7.5372758012e+02 7.5372758012e+02 0.0000000000e+00 0.0000e+00 -1.0000e+00
        6  1    1    2  501    0 +1.9300659589e+02 +7.2713873581e+01 -2.2659353107e+02 3.5186997853e+02 1.7300000000e+02 0.0000e+00 -1.0000e+00
       -6  1    1    2    0  503 -1.5572343044e+02 -8.2019821283e+01 -4.0374159130e+02 4.7319479120e+02 1.7300000000e+02 0.0000e+00 -1.0000e+00
       21  1    1    2  504  502 -2.8967652656e+01 -2.3411960097e+01 -7.1503654411e+00 3.7925881690e+01 0.0000000000e+00 0.0000e+00 -1.0000e+00
       21  1    1    2  505  501 -8.3155127971e+00 +3.2717907798e+01 +7.8155840875e+01 8.5134861876e+01 0.0000000000e+00 0.0000e+00 -1.0000e+00
<mgrwt>
<rscale>  4 0.25434408E+03</rscale>
<asrwt>0</asrwt>
<pdfrwt beam="1">  1       21 0.29907375E-01 0.25434408E+03</pdfrwt>
<pdfrwt beam="2">  1       21 0.11595809E+00 0.25434408E+03</pdfrwt>
<totfact> 0.58991013E+03</totfact>
</mgrwt>
</event>
<event>
 6      1 +2.5196620e+02 2.14541900e+02 7.54677100e-03 1.15679100e-01
       21 -1    0    0  503  502 +0.0000000000e+00 +0.0000000000e+00 +4.5688735269e+02 4.5688735269e+02 0.0000000000e+00 0.0000e+00 1.0000e+00
       21 -1    0    0  505  503 -0.0000000000e+00 -0.0000000000e+00 -2.0902475607e+02 2.0902475607e+02 0.0000000000e+00 0.0000e+00 1.0000e+00
        6  1    1    2  501    0 -7.7776245067e+01 +7.7711428032e+01 -5.4438534751e+01 2.1208669079e+02 1.7300000000e+02 0.0000e+00 1.0000e+00
       -6  1    1    2    0  504 +8.5507361129e+01 -4.3652585859e+01 +2.3962591753e+02 3.1075172954e+02 1.7300000000e+02 0.0000e+00 -1.0000e+00
       21  1    1    2  504  502 +3.2833669889e+01 -6.7819183673e+01 +4.2962153742e+01 8.6736602462e+01 0.0000000000e+00 0.0000e+00 1.0000e+00
       21  1    1    2  505  501 -4.0564785950e+01 +3.3760341501e+01 +1.9713060089e+01 5.6337085969e+01 0.0000000000e+00 0.0000e+00 1.0000e+00
<mgrwt>
<rscale>  4 0.21454187E+03</rscale>
<asrwt>0</asrwt>
<pdfrwt beam="1">  1       21 0.70290362E-01 0.21454187E+03</pdfrwt>
<pdfrwt beam="2">  1       21 0.32157655E-01 0.21454187E+03</pdfrwt>
<totfact> 0.16851338E+04</totfact>
</mgrwt>
</event>
<event>
 6      1 +2.5196620e+02 2.60765900e+02 7.54677100e-03 1.16726300e-01
       21 -1    0    0  504  502 +0.0000000000e+00 +0.0000000000e+00 +3.4290274519e+02 3.4290274519e+02 0.0000000000e+00 0.0000e+00 -1.0000e+00
       21 -1    0    0  505  503 -0.0000000000e+00 -0.0000000000e+00 -4.4727362233e+02 4.4727362233e+02 0.0000000000e+00 0.0000e+00 -1.0000e+00
        6  1    1    2  501    0 -1.0545435177e+02 -1.4379192739e+02 +1.5371394087e+02 2.9215358000e+02 1.7300000000e+02 0.0000e+00 -1.0000e+00
       -6  1    1    2    0  503 +1.7468965563e+02 +1.9997795661e+02 -1.9982158885e+02 3.7465360839e+02 1.7300000000e+02 0.0000e+00 -1.0000e+00
       21  1    1    2  504  501 -6.6501370676e+01 -2.2545562501e+01 -2.1442814495e+01 7.3420221899e+01 0.0000000000e+00 0.0000e+00 1.0000e+00
       21  1    1    2  505  502 -2.7339331774e+00 -3.3640466720e+01 -3.6820414663e+01 4.9948957224e+01 0.0000000000e+00 0.0000e+00 -1.0000e+00
<mgrwt>
<rscale>  4 0.26076593E+03</rscale>
<asrwt>0</asrwt>
<pdfrwt beam="1">  1       21 0.52754269E-01 0.26076593E+03</pdfrwt>
<pdfrwt beam="2">  1       21 0.68811326E-01 0.26076593E+03</pdfrwt>
<totfact> 0.62647189E+03</totfact>
</mgrwt>
</event>
<event>
 6      1 +2.5196620e+02 1.78931800e+02 7.54677100e-03 1.06301000e-01
       21 -1    0    0  505  502 +0.0000000000e+00 +0.0000000000e+00 +3.4988326952e+02 3.4988326952e+02 0.0000000000e+00 0.0000e+00 -1.0000e+00
       21 -1    0    0  501  503 -0.0000000000e+00 -0.0000000000e+00 -3.4343624724e+02 3.4343624724e+02 0.0000000000e+00 0.0000e+00 1.0000e+00
        6  1    1    2  501    0 -4.6991133004e+01 -4.7590399027e+01 -9.3825796751e+01 2.0785882901e+02 1.7300000000e+02 0.0000e+00 1.0000e+00
       -6  1    1    2    0  502 +2.6910251054e+00 +8.1103802336e+01 +2.0728574369e+02 2.8192454293e+02 1.7300000000e+02 0.0000e+00 -1.0000e+00
       21  1    1    2  504  503 +2.3029155176e+01 +2.9659767632e+01 -1.2820449471e+02 1.3359055456e+02 0.0000000000e+00 0.0000e+00 1.0000e+00
       21  1    1    2  505  504 +2.1270952722e+01 -6.3173170940e+01 +2.1191570052e+01 6.9945590266e+01 0.0000000000e+00 0.0000e+00 -1.0000e+00
<mgrwt>
<rscale>  4 0.17893176E+03</rscale>
<asrwt>0</asrwt>
<pdfrwt beam="1">  1       21 0.53828196E-01 0.17893176E+03</pdfrwt>
<pdfrwt beam="2">  1       21 0.52836346E-01 0.17893176E+03</pdfrwt>
<totfact> 0.11185140E+04</totfact>
</mgrwt>
</event>
<event>
 6      1 +2.5196620e+02 1.83571400e+02 7.54677100e-03 1.14954000e-01
       21 -1    0    0  501  502 +0.0000000000e+00 +0.0000000000e+00 +2.5535398530e+02 2.5535398530e+02 0.0000000000e+00 0.0000e+00 1.0000e+00
       21 -1    0    0  505  503 -0.0000000000e+00 -0.0000000000e+00 -6.3664207216e+02 6.3664207216e+02 0.0000000000e+00 0.0000e+00 -1.0000e+00
        6  1    1    2  501    0 -8.8507067867e+00 +3.2797770316e+01 -1.7690037285e+02 2.4975341972e+02 1.7300000000e+02 0.0000e+00 -1.0000e+00
       -6  1    1    2    0  503 +7.5592876373e+01 -3.6555597307e+01 -3.9506219929e+02 4.3937880691e+02 1.7300000000e+02 0.0000e+00 -1.0000e+00
       21  1    1    2  504  502 -2.9753446338e+01 +5.5033270532e+00 +1.1019911186e+02 1.1427772501e+02 0.0000000000e+00 0.0000e+00 1.0000e+00
       21  1    1    2  505  504 -3.6988723248e+01 -1.7455000618e+00 +8.0475373416e+01 8.8586105821e+01 0.0000000000e+00 0.0000e+00 -1.0000e+00
<mgrwt>
<rscale>  4 0.18357142E+03</rscale>
<asrwt>0</asrwt>
<pdfrwt beam="1">  1       21 0.39285229E-01 0.18357142E+03</pdfrwt>
<pdfrwt beam="2">  1       21 0.97944934E-01 0.18357142E+03</pdfrwt>
<totfact> 0.54248937E+03</totfact>
</mgrwt>
</event>
<event>
 6      1 +2.5196620e+02 2.17934000e+02 7.54677100e-03 1.12691600e-01
       21 -1    0    0  501  502 +0.0000000000e+00 +0.0000000000e+00 +1.1037309905e+03 1.1037309905e+03 0.0000000000e+00 0.0000e+00 1.0000e+00
       21 -1    0    0  504  503 -0.0000000000e+00 -0.0000000000e+00 -8.4231484247e+01 8.4231484247e+01 0.0000000000e+00 0.0000e+00 1.0000e+00
        6  1    1    2  501    0 +6.2015105858e+01 -9.7842413067e+01 +3.0387365888e+02 3.6835745101e+02 1.7300000000e+02 0.0000e+00 1.0000e+00
       -6  1    1    2    0  503 -1.2743001540e+02 +8.1561928104e+01 +2.1886133148e+02 3.1736420617e+02 1.7300000000e+02 0.0000e+00 1.0000e+00
       21  1    1    2  504  505 +3.8664048309e+01 +7.9510115148e+00 +1.8197684495e+02 1.8620875198e+02 0.0000000000e+00 0.0000e+00 1.0000e+00
       21  1    1    2  505  502 +2.6750861237e+01 +8.3294734489e+00 +3.1478767090e+02 3.1603206555e+02 0.0000000000e+00 0.0000e+00 1.0000e+00
<mgrwt>
<rscale>  4 0.21793400E+03</rscale>
<asrwt>0</asrwt>
<pdfrwt beam="1">  1       21 0.16980476E+00 0.21793400E+03</pdfrwt>
<pdfrwt beam="2">  1       21 0.12958691E-01 0.21793400E+03</pdfrwt>
<totfact> 0.10736561E+04</totfact>
</mgrwt>
</event>
<event>
 6      1 +2.5196620e+02 1.89912900e+02 7.54677100e-03 1.02776600e-01
       21 -1    0    0  505  502 +0.0000000000e+00 +0.0000000000e+00 +1.4114160350e+02 1.4114160350e+02 0.0000000000e+00 0.0000e+00 -1.0000e+00
       21 -1    0    0  501  503 -0.0000000000e+00 -0.0000000000e+00 -6.4261127118e+02 6.4261127118e+02 0.0000000000e+00 0.0000e+00 -1.0000e+00
        6  1    1    2  501    0 +4.8656247300e+01 -8.0859107822e+01 -3.6168572491e+01 2.0035666037e+02 1.7300000000e+02 0.0000e+00 -1.0000e+00
       -6  1    1    2    0  502 -4.9190375387e+01 +3.6953887879e+01 -8.8335759952e+01 2.0375840927e+02 1.7300000000e+02 0.0000e+00 -1.0000e+00
       21  1    1    2  504  503 +4.6593589456e+00 +2.0028204362e+01 -1.5659602233e+02 1.5794034572e+02 0.0000000000e+00 0.0000e+00 -1.0000e+00
       21  1    1    2  505  504 -4.1252308588e+00 +2.3877015582e+01 -2.2036931290e+02 2.2169745932e+02 0.0000000000e+00 0.0000e+00 -1.0000e+00
<mgrwt>
<rscale>  4 0.18991293E+03</rscale>
<asrwt>0</asrwt>
<pdfrwt beam="1">  1       21 0.21714093E-01 0.18991293E+03</pdfrwt>
<pdfrwt beam="2">  1       21 0.98863271E-01 0.18991293E+03</pdfrwt>
<totfact> 0.16717201E+04</totfact>
</mgrwt>
</event>
<event>
 6      1 +2.5196620e+02 1.99442300e+02 7.54677100e-03 9.49153200e-02
       21 -1    0    0  505  502 +0.0000000000e+00 +0.0000000000e+00 +1.0210928359e+03 1.0210928359e+03 0.0000000000e+00 0.0000e+00 -1.0000e+00
       21 -1    0    0  501  503 -0.0000000000e+00 -0.0000000000e+00 -1.7743602175e+02 1.7743602175e+02 0.0000000000e+00 0.0000e+00 1.0000e+00
        6  1    1    2  501    0 -4.9080271114e+01 +4.0180904943e+01 +1.4812370712e+02 2.3641702719e+02 1.7300000000e+02 0.0000e+00 -1.0000e+00
       -6  1    1    2    0  502 -1.8719581600e+01 -1.6984151099e+02 +6.6157159623e+01 2.5199668919e+02 1.7300000000e+02 0.0000e+00 1.0000e+00
       21  1    1    2  504  503 +3.5131633225e-01 +7.0012635155e+01 -4.2322214240e+00 7.0141315946e+01 0.0000000000e+00 0.0000e+00 -1.0000e+00
       21  1    1    2  505  504 +6.7448536381e+01 +5.9647970893e+01 +6.3360816885e+02 6.3997382535e+02 0.0000000000e+00 0.0000e+00 -1.0000e+00
<mgrwt>
<rscale>  4 0.19944234E+03</rscale>
<asrwt>0</asrwt>
<pdfrwt beam="1">  1       21 0.15709120E+00 0.19944234E+03</pdfrwt>
<pdfrwt beam="2">  1       21 0.27297850E-01 0.19944234E+03</pdfrwt>
<totfact> 0.33629723E+03</totfact>
</mgrwt>
</event>
<event>
 6      1 +2.5196620e+02 1.98468700e+02 7.54677100e-03 1.16321900e-01
       21 -1    0    0  505  502 +0.0000000000e+00 +0.0000000000e+00 +1.2667973283e+03 1.2667973283e+03 0.0000000000e+00 0.0000e+00 1.0000e+00
       21 -1    0    0  504  503 -0.0000000000e+00 -0.0000000000e+00 -1.6951291435e+02 1.6951291435e+02 0.0000000000e+00 0.0000e+00 1.0000e+00
        6  1    1    2  501    0 +5.7345883197e+01 +4.8078063724e+00 +5.5496804037e+02 5.8414911722e+02 1.7300000000e+02 0.0000e+00 1.0000e+00
       -6  1    1    2    0  502 -1.2916170449e+02 -1.1886697764e+02 +6.1155135411e+02 6.5934525325e+02 1.7300000000e+02 0.0000e+00 1.0000e+00
       21  1    1    2  504  501 +5.4705725612e+01 +1.3354871687e+02 -7.9683417540e+01 1.6485576491e+02 0.0000000000e+00 0.0000e+00 1.0000e+00
       21  1    1    2  505  503 +1.7110095678e+01 -1.9489545600e+01 +1.0448436989e+01 2.7960107248e+01 0.0000000000e+00 0.0000e+00 1.0000e+00
<mgrwt>
<rscale>  4 0.19846872E+03</rscale>
<asrwt>0</asrwt>
<pdfrwt beam="1">  1       21 0.19489189E+00 0.19846872E+03</pdfrwt>
<pdfrwt beam="2">  1       21 0.26078911E-01 0.19846872E+03</pdfrwt>
<totfact> 0.20119693E+03</totfact>
</mgrwt>
</event>
<event>
 6      1 +2.5196620e+02 2.67263700e+02 7.54677100e-03 1.07655700e-01
       21 -1    0    0  501  502 +0.0000000000e+00 +0.0000000000e+00 +1.1325376801e+03 1.1325376801e+03 0.0000000000e+00 0.0000e+00 1.0000e+00
       21 -1    0    0  502  503 -0.0000000000e+00 -0.0000000000e+00 -2.5823610121e+02 2.5823610121e+02 0.0000000000e+00 0.0000e+00 1.0000e+00
        6  1    1    2  501    0 +2.9690067945e+01 -1.7045799958e+01 +3.7034471215e+02 4.1019052311e+02 1.7300000000e+02 0.0000e+00 1.0000e+00
       -6  1    1    2    0  505 -1.7178587157e+02 +5.0841867661e+01 +2.1074027636e+02 3.2624491607e+02 1.7300000000e+02 0.0000e+00 1.0000e+00
       21  1    1    2  504  503 -7.5859788889e+00 +1.2465410290e+02 -1.2876983146e+02 1.7938188855e+02 0.0000000000e+00 0.0000e+00 -1.0000e+00
       21  1    1    2  505  504 +1.4968178252e+02 -1.5845017061e+02 +4.2198642187e+02 4.7495645361e+02 0.0000000000e+00 0.0000e+00 1.0000e+00
<mgrwt>
<rscale>  4 0.24056123E+03</rscale>
<asrwt>0</asrwt>
<pdfrwt beam="1">  1       21 0.17423656E+00 0.26726374E+03</pdfrwt>
<pdfrwt beam="2">  1       21 0.39728632E-01 0.26726374E+03</pdfrwt>
<totfact> 0.11371616E+03</totfact>
</mgrwt>
</event>
<event>
 6      1 +2.5196620e+02 2.26223400e+02 7.54677100e-03 1.16128000e-01
       21 -1    0    0  501  502 +0.0000000000e+00 +0.0000000000e+00 +5.8613867302e+02 5.8613867302e+02 0.0000000000e+00 0.0000e+00 -1.0000e+00
       21 -1    0    0  504  503 -0.0000000000e+00 -0.0000000000e+00 -3.5719552848e+02 3.5719552848e+02 0.0000000000e+00 0.0000e+00 -1.0000e+00
        6  1    1    2  501    0 -1.1874471559e+02 -1.0440933151e+02 +4.1650036270e+02 4.7791544034e+02 1.7300000000e+02 0.0000e+00 -1.0000e+00
       -6  1    1    2    0  503 +1.1520762895e+02 -6.6281076642e+01 -1.9137291370e+02 2.9020436073e+02 1.7300000000e+02 0.0000e+00 -1.0000e+00
       21  1    1    2  504  505 +8.0000294672e+00 +1.8861757566e+01 -9.7995583003e+00 2.2711180349e+01 0.0000000000e+00 0.0000e+00 1.0000e+00
       21  1    1    2  505  502 -4.4629428212e+00 +1.5182865059e+02 +1.3615253840e+01 1.5250322008e+02 0.0000000000e+00 0.0000e+00 -1.0000e+00
<mgrwt>
<rscale>  4 0.22622345E+03</rscale>
<asrwt>0</asrwt>
<pdfrwt beam="1">  1       21 0.90175180E-01 0.22622345E+03</pdfrwt>
<pdfrwt beam="2">  1       21 0.54953158E-01 0.22622345E+03</pdfrwt>
<totfact> 0.31812494E+03</totfact>
</mgrwt>
</event>
<event>
 6      1 +2.5196620e+02 1.75099300e+02 7.54677100e-03 1.09711200e-01
       21 -1    0    0  501  502 +0.0000000000e+00 +0.0000000000e+00 +1.3998036889e+02 1.3998036889e+02 0.0000000000e+00 0.0000e+00 1.0000e+00
       21 -1    0    0  505  503 -0.0000000000e+00 -0.0000000000e+00 -1.3453515004e+03 1.3453515004e+03 0.0000000000e+00 0.0000e+00 -1.0000e+00
        6  1    1    2  501    0 -6.6998496394e+01 -4.0552999864e+00 -2.1101845106e+02 2.8100361326e+02 1.7300000000e+02 0.0000e+00 1.0000e+00
       -6  1    1    2    0  503 -4.4899422310e+01 +1.1898864528e+01 -1.0464464920e+03 1.0616669920e+03 1.7300000000e+02 0.0000e+00 -1.0000e+00
       21  1    1    2  504  502 +3.0089884976e+01 +1.6093470244e+01 +4.5905354753e+01 5.7198798565e+01 0.0000000000e+00 0.0000e+00 1.0000e+00
       21  1    1    2  505  504 +8.1808033729e+01 -2.3937034786e+01 +6.1884568080e+00 8.5462465531e+01 0.0000000000e+00 0.0000e+00 1.0000e+00
<mgrwt>
<rscale>  4 0.17509926E+03</rscale>
<asrwt>0</asrwt>
<pdfrwt beam="1">  1       21 0.21535442E-01 0.17509926E+03</pdfrwt>
<pdfrwt beam="2">  1       21 0.20697715E+00 0.17509926E+03</pdfrwt>
<totfact> 0.24821554E+03</totfact>
</mgrwt>
</event>
<event>
 6      1 +2.5196620e+02 2.54030800e+02 7.54677100e-03 1.06301000e-01
       21 -1    0    0  505  502 +0.0000000000e+00 +0.0000000000e+00 +4.8669055586e+02 4.8669055586e+02 0.0000000000e+00 0.0000e+00 1.0000e+00
       21 -1    0    0  504  503 -0.0000000000e+00 -0.0000000000e+00 -3.3674573905e+02 3.3674573905e+02 0.0000000000e+00 0.0000e+00 -1.0000e+00
        6  1    1    2  501    0 +1.4471448716e+02 -1.4645313036e+02 -2.5740762000e+00 2.6893573220e+02 1.7300000000e+02 0.0000e+00 -1.0000e+00
       -6  1    1    2    0  503 -1.2095904512e+02 +1.1499557625e+02 -9.1417758204e+01 2.5717946976e+02 1.7300000000e+02 0.0000e+00 1.0000e+00
       21  1    1    2  504  502 -1.9469904626e+01 +8.8680105715e+00 -2.1827615346e+01 3.0564089866e+01 0.0000000000e+00 0.0000e+00 -1.0000e+00
       21  1    1    2  505  501 -4.2855374181e+00 +2.2589543534e+01 +2.6576426656e+02 2.6675700308e+02 0.0000000000e+00 0.0000e+00 1.0000e+00
<mgrwt>
<rscale>  4 0.25403076E+03</rscale>
<asrwt>0</asrwt>
<pdfrwt beam="1">  1       21 0.74875470E-01 0.25403076E+03</pdfrwt>
<pdfrwt beam="2">  1       21 0.51807037E-01 0.25403076E+03</pdfrwt>
<totfact> 0.54123568E+03</totfact>
</mgrwt>
</event>
<event>
 6      1 +2.5196620e+02 2.43490500e+02 7.54677100e-03 1.09711200e-01
       21 -1    0    0  501  502 +0.0000000000e+00 +0.0000000000e+00 +1.2360110935e+02 1.2360110935e+02 0.0000000000e+00 0.0000e+00 -1.0000e+00
       21 -1    0    0  505  503 -0.0000000000e+00 -0.0000000000e+00 -2.3034699947e+03 2.3034699947e+03 0.0000000000e+00 0.0000e+00 1.0000e+00
        6  1    1    2  501    0 -2.3599755276e+01 +1.3762434932e+02 -3.1075942897e+02 3.8209662740e+02 1.7300000000e+02 0.0000e+00 1.0000e+00
       -6  1    1    2    0  503 +4.4691355749e+00 +1.5541830570e+02 -1.6177888647e+03 1.6344248632e+03 1.7300000000e+02 0.0000e+00 1.0000e+00
       21  1    1    2  504  502 +2.1859483638e+01 -1.0792239677e+00 -5.3681347026e+01 5.7971447868e+01 0.0000000000e+00 0.0000e+00 1.0000e+00
       21  1    1    2  505  504 -2.7288639375e+00 -2.9196343105e+02 -1.9763924466e+02 3.5257816552e+02 0.0000000000e+00 0.0000e+00 -1.0000e+00
<mgrwt>
<rscale>  4 0.23789949E+03</rscale>
<asrwt>0</asrwt>
<pdfrwt beam="1">  1       21 0.19015556E-01 0.24349048E+03</pdfrwt>
<pdfrwt beam="2">  1       21 0.35437998E+00 0.24349048E+03</pdfrwt>
<totfact> 0.38891397E+02</totfact>
</mgrwt>
</event>
<event>
 6      1 +2.5196620e+02 3.09677600e+02 7.54677100e-03 1.01993900e-01
       21 -1    0    0  504  502 +0.0000000000e+00 +0.0000000000e+00 +6.2383610975e+02 6.2383610975e+02 0.0000000000e+00 0.0000e+00 1.0000e+00
       21 -1    0    0  505  503 -0.0000000000e+00 -0.0000000000e+00 -9.3755926116e+02 9.3755926116e+02 0.0000000000e+00 0.0000e+00 1.0000e+00
        6  1    1    2  501    0 -2.0701102650e+02 +4.2891727851e+01 -3.1302989123e+02 4.1546357026e+02 1.7300000000e+02 0.0000e+00 -1.0000e+00
       -6  1    1    2    0  503 -2.7816955467e+01 +9.8013214693e+01 -4.9005887051e+02 5.2959141783e+02 1.7300000000e+02 0.0000e+00 1.0000e+00
       21  1    1    2  504  501 +2.1643352437e+02 -1.2777470334e+02 +1.8734970544e+02 3.1348007498e+02 0.0000000000e+00 0.0000e+00 -1.0000e+00
       21  1    1    2  505  502 +1.8394457603e+01 -1.3130239204e+01 +3.0201590490e+02 3.0286030784e+02 0.0000000000e+00 0.0000e+00 1.0000e+00
<mgrwt>
<rscale>  4 0.27769111E+03</rscale>
<asrwt>0</asrwt>
<pdfrwt beam="1">  1       21 0.95974786E-01 0.30967762E+03</pdfrwt>
<pdfrwt beam="2">  1       21 0.14423989E+00 0.30967762E+03</pdfrwt>
<totfact> 0.26778317E+02</totfact>
</mgrwt>
</event>
<event>
 6      1 +2.5196620e+02 2.36000300e+02 7.54677100e-03 1.13287100e-01
       21 -1    0    0  504  502 +0.0000000000e+00 +0.0000000000e+00 +4.8940127664e+02 4.8940127664e+02 0.0000000000e+00 0.0000e+00 -1.0000e+00
       21 -1    0    0  505  503 -0.0000000000e+00 -0.0000000000e+00 -2.6821000354e+02 2.6821000354e+02 0.0000000000e+00 0.0000e+00 1.0000e+00
        6  1    1    2  501    0 -1.8554382322e+02 +4.3502512230e+01 -3.9568197302e+01 2.6041048586e+02 1.7300000000e+02 0.0000e+00 1.0000e+00
       -6  1    1    2    0  503 +9.7034340865e+01 -5.3658288772e+01 +9.1430839817e+01 2.2490770047e+02 1.7300000000e+02 0.0000e+00 -1.0000e+00
       21  1    1    2  504  501 -3.3582596043e+01 +1.6714432640e+01 -2.3283543223e+01 4.4150723669e+01 0.0000000000e+00 0.0000e+00 1.0000e+00
       21  1    1    2  505  502 +1.2209207840e+02 -6.5586560973e+00 +1.9261217381e+02 2.2814237019e+02 0.0000000000e+00 0.0000e+00 -1.0000e+00
<mgrwt>
<rscale>  4 0.23600027E+03</rscale>
<asrwt>0</asrwt>
<pdfrwt beam="1">  1       21 0.75292504E-01 0.23600027E+03</pdfrwt>
<pdfrwt beam="2">  1       21 0.41263078E-01 0.23600027E+03</pdfrwt>
<totfact> 0.86621290E+03</totfact>
</mgrwt>
</event>
<event>
 6      1 +2.5196620e+02 1.88425100e+02 7.54677100e-03 1.06301000e-01
       21 -1    0    0  501  502 +0.0000000000e+00 +0.0000000000e+00 +3.5550335219e+02 3.5550335219e+02 0.0000000000e+00 0.0000e+00 1.0000e+00
       21 -1    0    0  505  503 -0.0000000000e+00 -0.0000000000e+00 -1.8693758715e+02 1.8693758715e+02 0.0000000000e+00 0.0000e+00 1.0000e+00
        6  1    1    2  501    0 -6.8471502144e+01 -5.0654069318e+01 +1.9145622196e+02 2.7173271108e+02 1.7300000000e+02 0.0000e+00 1.0000e+00
       -6  1    1    2    0  504 +3.0571418365e+01 +8.0295199859e+01 -8.3094090559e+00 1.9333902095e+02 1.7300000000e+02 0.0000e+00 1.0000e+00
       21  1    1    2  504  503 +1.2501484646e+01 -3.2579725588e+01 -3.1253472195e+01 4.6845545807e+01 0.0000000000e+00 0.0000e+00 1.0000e+00
       21  1    1    2  505  502 +2.5398599133e+01 +2.9385950468e+00 +1.6672424328e+01 3.0523661507e+01 0.0000000000e+00 0.0000e+00 -1.0000e+00
<mgrwt>
<rscale>  4 0.18842515E+03</rscale>
<asrwt>0</asrwt>
<pdfrwt beam="1">  1       21 0.54692823E-01 0.18842515E+03</pdfrwt>
<pdfrwt beam="2">  1       21 0.28759629E-01 0.18842515E+03</pdfrwt>
<totfact> 0.36591797E+04</totfact>
</mgrwt>
</event>
<event>
 6      1 +2.5196620e+02 1.96398100e+02 7.54677100e-03 1.11396600e-01
       21 -1    0    0  504  502 +0.0000000000e+00 +0.0000000000e+00 +1.0635274262e+03 1.0635274262e+03 0.0000000000e+00 0.0000e+00 -1.0000e+00
       21 -1    0    0  502  503 -0.0000000000e+00 -0.0000000000e+00 -3.8119772445e+02 3.8119772445e+02 0.0000000000e+00 0.0000e+00 -1.0000e+00
        6  1    1    2  501    0 -4.5284413510e+01 -1.0858668197e+02 +1.7867855771e+02 2.7513046467e+02 1.7300000000e+02 0.0000e+00 -1.0000e+00
       -6  1    1    2    0  503 -5.5040241601e+01 +7.8819464295e+01 -2.9067225875e+02 3.5165508407e+02 1.7300000000e+02 0.0000e+00 -1.0000e+00
       21  1    1    2  504  505 -2.7634635132e-01 +7.8786862933e+01 +2.4585139407e+02 2.5816729867e+02 0.0000000000e+00 0.0000e+00 -1.0000e+00
       21  1    1    2  505  501 +1.0060100146e+02 -4.9019645258e+01 +5.4847200875e+02 5.5977230326e+02 0.0000000000e+00 0.0000e+00 -1.0000e+00
<mgrwt>
<rscale>  4 0.19639814E+03</rscale>
<asrwt>0</asrwt>
<pdfrwt beam="1">  1       21 0.16361960E+00 0.19639814E+03</pdfrwt>
<pdfrwt beam="2">  1       21 0.58645804E-01 0.19639814E+03</pdfrwt>
<totfact> 0.64195782E+02</totfact>
</mgrwt>
</event>
<event>
 6      1 +2.5196620e+02 2.24083900e+02 7.54677100e-03 1.02776600e-01
       21 -1    0    0  501  502 +0.0000000000e+00 +0.0000000000e+00 +5.2881426451e+02 5.2881426451e+02 0.0000000000e+00 0.0000e+00 -1.0000e+00
       21 -1    0    0  505  503 -0.0000000000e+00 -0.0000000000e+00 -3.2343007177e+02 3.2343007177e+02 0.0000000000e+00 0.0000e+00 -1.0000e+00
        6  1    1    2  501    0 -3.9782834598e+01 +1.5465917446e+02 +3.0902366495e+02 3.8849293388e+02 1.7300000000e+02 0.0000e+00 -1.0000e+00
       -6  1    1    2    0  503 -3.5594884556e+01 -1.2018043119e+02 +1.0037697920e+02 2.3603997501e+02 1.7300000000e+02 0.0000e+00 1.0000e+00
       21  1    1    2  504  502 +1.1802357679e+01 -2.7307087288e+01 -2.9749753547e+01 4.2071611558e+01 0.0000000000e+00 0.0000e+00 1.0000e+00
       21  1    1    2  505  504 +6.3575361475e+01 -7.1716559849e+00 -1.7426669787e+02 1.8563981584e+02 0.0000000000e+00 0.0000e+00 -1.0000e+00
<mgrwt>
<rscale>  4 0.22408395E+03</rscale>
<asrwt>0</asrwt>
<pdfrwt beam="1">  1       21 0.81356040E-01 0.22408395E+03</pdfrwt>
<pdfrwt beam="2">  1       21 0.49758473E-01 0.22408395E+03</pdfrwt>
<totfact> 0.49776343E+03</totfact>
</mgrwt>
</event>
<event>
 6      1 +2.5196620e+02 3.49380900e+02 7.54677100e-03 1.11396600e-01
       21 -1    0    0  501  502 +0.0000000000e+00 +0.0000000000e+00 +2.1560456024e+03 2.1560456024e+03 0.0000000000e+00 0.0000e+00 -1.0000e+00
       21 -1    0    0  505  503 -0.0000000000e+00 -0.0000000000e+00 -3.8664485537e+02 3.8664485537e+02 0.0000000000e+00 0.0000e+00 -1.0000e+00
        6  1    1    2  501    0 -1.8863421429e+02 -1.1328054154e+02 +9.3932987387e+01 2.9524185681e+02 1.7300000000e+02 0.0000e+00 -1.0000e+00
       -6  1    1    2    0  503 -6.7575444708e+01 -8.0540580804e+01 -2.3170963768e+02 3.0768747469e+02 1.7300000000e+02 0.0000e+00 1.0000e+00
       21  1    1    2  504  502 +2.3486014466e+02 +1.8147594844e+02 +1.8790787929e+03 1.9023748099e+03 0.0000000000e+00 0.0000e+00 -1.0000e+00
       21  1    1    2  505  504 +2.1349514331e+01 +1.2345173903e+01 +2.8098604399e+01 3.7386316347e+01 0.0000000000e+00 0.0000e+00 1.0000e+00
<mgrwt>
<rscale>  4 0.30474281E+03</rscale>
<asrwt>0</asrwt>
<pdfrwt beam="1">  1       21 0.33169932E+00 0.34938093E+03</pdfrwt>
<pdfrwt beam="2">  1       21 0.59483825E-01 0.34938093E+03</pdfrwt>
<totfact> 0.48291129E+01</totfact>
</mgrwt>
</event>
<event>
 6      1 +2.5196620e+02 2.30660000e+02 7.54677100e-03 1.16128000e-01
       21 -1    0    0  501  502 +0.0000000000e+00 +0.0000000000e+00 +1.1774012384e+03 1.1774012384e+03 0.0000000000e+00 0.0000e+00 1.0000e+00
       21 -1    0    0  504  503 -0.0000000000e+00 -0.0000000000e+00 -1.4783110691e+02 1.4783110691e+02 0.0000000000e+00 0.0000e+00 1.0000e+00
        6  1    1    2  501    0 +6.5463166940e+01 -1.6343831744e+02 +9.3511183040e+02 9.6714044750e+02 1.7300000000e+02 0.0000e+00 1.0000e+00
       -6  1    1    2    0  503 +3.7851809626e+01 +4.8469314808e+01 +2.1088596661e+01 1.8481277791e+02 1.7300000000e+02 0.0000e+00 -1.0000e+00
       21  1    1    2  504  505 -1.3998410857e+01 +1.7946271358e+01 +2.2292311477e+01 3.1858614426e+01 0.0000000000e+00 0.0000e+00 1.0000e+00
       21  1    1    2  505  502 -8.9316565709e+01 +9.7022731277e+01 +5.1077392921e+01 1.4142050545e+02 0.0000000000e+00 0.0000e+00 1.0000e+00
<mgrwt>
<rscale>  4 0.23066003E+03</rscale>
<asrwt>0</asrwt>
<pdfrwt beam="1">  1       21 0.18113865E+00 0.23066003E+03</pdfrwt>
<pdfrwt beam="2">  1       21 0.22743248E-01 0.23066003E+03</pdfrwt>
<totfact> 0.31328675E+03</totfact>
</mgrwt>
</event>
<event>
 6      1 +2.5196620e+02 2.55779000e+02 7.54677100e-03 1.06301000e-01
       21 -1    0    0  505  502 +0.0000000000e+00 +0.0000000000e+00 +1.1612034938e+03 1.1612034938e+03 0.0000000000e+00 0.0000e+00 1.0000e+00
       21 -1    0    0  502  503 -0.0000000000e+00 -0.0000000000e+00 -1.0815555275e+02 1.0815555275e+02 0.0000000000e+00 0.0000e+00 -1.0000e+00
        6  1    1    2  501    0 +2.9016318957e+00 -1.4404535606e+02 +2.2380376659e+02 3.1745016934e+02 1.7300000000e+02 0.0000e+00 -1.0000e+00
       -6  1    1    2    0  504 -2.5131247204e+01 +2.5872636999e+02 +4.9762619862e+02 5.8747914657e+02 1.7300000000e+02 0.0000e+00 1.0000e+00
       21  1    1    2  504  503 -3.0923851750e+01 -1.6995921288e+01 +4.6369127249e+01 5.8268704373e+01 0.0000000000e+00 0.0000e+00 1.0000e+00
       21  1    1    2  505  501 +5.3153467058e+01 -9.7685092639e+01 +2.8524884860e+02 3.0616102628e+02 0.0000000000e+00 0.0000e+00 1.0000e+00
<mgrwt>
<rscale>  4 0.25577898E+03</rscale>
<asrwt>0</asrwt>
<pdfrwt beam="1">  1       21 0.17864668E+00 0.25577898E+03</pdfrwt>
<pdfrwt beam="2">  1       21 0.16639317E-01 0.25577898E+03</pdfrwt>
<totfact> 0.57453789E+03</totfact>
</mgrwt>
</event>
<event>
 6      1 +2.5196620e+02 2.70581000e+02 7.54677100e-03 9.28652600e-02
       21 -1    0    0  501  502 +0.0000000000e+00 +0.0000000000e+00 +6.4857072116e+02 6.4857072116e+02 0.0000000000e+00 0.0000e+00 1.0000e+00
       21 -1    0    0  505  503 -0.0000000000e+00 -0.0000000000e+00 -6.6955974722e+02 6.6955974722e+02 0.0000000000e+00 0.0000e+00 -1.0000e+00
        6  1    1    2  501    0 +2.6569527423e+01 -2.1036713464e+02 +5.3434648427e+02 6.0034609716e+02 1.7300000000e+02 0.0000e+00 1.0000e+00
       -6  1    1    2    0  504 -4.8794645451e+01 +1.7807477846e+02 -1.2998416235e+02 2.8445812804e+02 1.7300000000e+02 0.0000e+00 -1.0000e+00
       21  1    1    2  504  503 +2.8664543862e+01 -1.9482780275e+00 -6.2285762747e+01 6.8592770050e+01 0.0000000000e+00 0.0000e+00 -1.0000e+00
       21  1    1    2  505  502 -6.4394258335e+00 +3.4240634210e+01 -3.6306558524e+02 3.6473347313e+02 0.0000000000e+00 0.0000e+00 -1.0000e+00
<mgrwt>
<rscale>  4 0.27058104E+03</rscale>
<asrwt>0</asrwt>
<pdfrwt beam="1">  1       21 0.99780111E-01 0.27058104E+03</pdfrwt>
<pdfrwt beam="2">  1       21 0.10300919E+00 0.27058104E+03</pdfrwt>
<totfact> 0.58735726E+02</totfact>
</mgrwt>
</event>
<event>
 6      1 +2.5196620e+02 1.84074400e+02 7.54677100e-03 9.28652600e-02
       21 -1    0    0  501  502 +0.0000000000e+00 +0.0000000000e+00 +1.3577830275e+03 1.3577830275e+03 0.0000000000e+00 0.0000e+00 -1.0000e+00
       21 -1    0    0  505  503 -0.0000000000e+00 -0.0000000000e+00 -3.8642238084e+02 3.8642238084e+02 0.0000000000e+00 0.0000e+00 1.0000e+00
        6  1    1    2  501    0 +6.4293191475e+01 -5.3040440882e+01 +9.8003767232e+02 9.9867399186e+02 1.7300000000e+02 0.0000e+00 -1.0000e+00
       -6  1    1    2    0  504 -8.4647614353e+00 +1.5955025546e+01 +3.3947174603e+02 3.8143974803e+02 1.7300000000e+02 0.0000e+00 -1.0000e+00
       21  1    1    2  504  503 -5.6557930692e+01 +1.6336176063e+01 -1.0762607004e+02 1.2267453332e+02 0.0000000000e+00 0.0000e+00 1.0000e+00
       21  1    1    2  505  502 +7.2950065215e-01 +2.0749239273e+01 -2.4052270168e+02 2.4141713511e+02 0.0000000000e+00 0.0000e+00 1.0000e+00
<mgrwt>
<rscale>  4 0.18407444E+03</rscale>
<asrwt>0</asrwt>
<pdfrwt beam="1">  1       21 0.20888969E+00 0.18407444E+03</pdfrwt>
<pdfrwt beam="2">  1       21 0.59449598E-01 0.18407444E+03</pdfrwt>
<totfact> 0.31522479E+02</totfact>
</mgrwt>
</event>
<event>
 6      1 +2.5196620e+02 1.82389300e+02 7.54677100e-03 9.49153200e-02
       21 -1    0    0  505  502 +0.0000000000e+00 +0.0000000000e+00 +1.9403069048e+02 1.9403069048e+02 0.0000000000e+00 0.0000e+00 -1.0000e+00
       21 -1    0    0  504  503 -0.0000000000e+00 -0.0000000000e+00 -7.5519437762e+02 7.5519437762e+02 0.0000000000e+00 0.0000e+00 -1.0000e+00
        6  1    1    2  501    0 -4.5142252953e+01 -6.8518490271e+01 -3.7754176338e+01 1.9515886949e+02 1.7300000000e+02 0.0000e+00 -1.0000e+00
       -6  1    1    2    0  502 +6.0848337142e+01 -9.4420687520e+00 -5.2793456374e+02 5.5895936918e+02 1.7300000000e+02 0.0000e+00 -1.0000e+00
       21  1    1    2  504  501 -6.1831359306e+00 +2.4725815151e+01 -8.5978519516e+01 8.9676657626e+01 0.0000000000e+00 0.0000e+00 -1.0000e+00
       21  1    1    2  505  503 -9.5229482584e+00 +5.3234743872e+01 +9.0503572462e+01 1.0543017181e+02 0.0000000000e+00 0.0000e+00 -1.0000e+00
<mgrwt>
<rscale>  4 0.18238931E+03</rscale>
<asrwt>0</asrwt>
<pdfrwt beam="1">  1       21 0.29850876E-01 0.18238931E+03</pdfrwt>
<pdfrwt beam="2">  1       21 0.11618375E+00 0.18238931E+03</pdfrwt>
<totfact> 0.62024135E+03</totfact>
</mgrwt>
</event>
<event>
 6      1 +2.5196620e+02 1.79664900e+02 7.54677100e-03 1.15679100e-01
       21 -1    0    0  503  502 +0.0000000000e+00 +0.0000000000e+00 +5.2075479475e+02 5.2075479475e+02 0.0000000000e+00 0.0000e+00 -1.0000e+00
       21 -1    0    0  505  503 -0.0000000000e+00 -0.0000000000e+00 -5.5351370974e+02 5.5351370974e+02 0.0000000000e+00 0.0000e+00 -1.0000e+00
        6  1    1    2  501    0 +4.8854194881e+01 -1.2385339051e+01 -4.6618218149e+02 4.9979491326e+02 1.7300000000e+02 0.0000e+00 -1.0000e+00
       -6  1    1    2    0  504 +1.2507711837e+01 +4.3650892421e+01 +4.1148826635e+02 4.4867965924e+02 1.7300000000e+02 0.0000e+00 -1.0000e+00
       21  1    1    2  504  502 -2.6317986165e+00 -5.8381338066e+01 +3.5686016514e+00 5.8549482628e+01 0.0000000000e+00 0.0000e+00 1.0000e+00
       21  1    1    2  505  501 -5.8730108102e+01 +2.7115784695e+01 +1.8366398498e+01 6.7244449370e+01 0.0000000000e+00 0.0000e+00 1.0000e+00
<mgrwt>
<rscale>  4 0.17966492E+03</rscale>
<asrwt>0</asrwt>
<pdfrwt beam="1">  1       21 0.80116122E-01 0.17966492E+03</pdfrwt>
<pdfrwt beam="2">  1       21 0.85155955E-01 0.17966492E+03</pdfrwt>
<totfact> 0.16562423E+03</totfact>
</mgrwt>
</event>
<event>
 6      1 +2.5196620e+02 2.26612000e+02 7.54677100e-03 1.06301000e-01
       21 -1    0    0  501  502 +0.0000000000e+00 +0.0000000000e+00 +2.5501812266e+02 2.5501812266e+02 0.0000000000e+00 0.0000e+00 1.0000e+00
       21 -1    0    0  504  503 -0.0000000000e+00 -0.0000000000e+00 -3.4232045426e+02 3.4232045426e+02 0.0000000000e+00 0.0000e+00 1.0000e+00
        6  1    1    2  501    0 -1.5362576561e+02 +2.4941167683e+01 -5.0096701019e+01 2.3803700796e+02 1.7300000000e+02 0.0000e+00 1.0000e+00
       -6  1    1    2    0  503 +1.3681389626e+02 +2.6255734213e+01 -1.0386230301e+02 2.4520151667e+02 1.7300000000e+02 0.0000e+00 1.0000e+00
       21  1    1    2  504  505 +2.1028511605e+01 -1.6339918227e+00 -9.5042827083e+00 2.3134381759e+01 0.0000000000e+00 0.0000e+00 1.0000e+00
       21  1    1    2  505  502 -4.2166422604e+00 -4.9562910074e+01 +7.6160955140e+01 9.0965670529e+01 0.0000000000e+00 0.0000e+00 -1.0000e+00
<mgrwt>
<rscale>  4 0.22661195E+03</rscale>
<asrwt>0</asrwt>
<pdfrwt beam="1">  1       21 0.39233557E-01 0.22661195E+03</pdfrwt>
<pdfrwt beam="2">  1       21 0.52664685E-01 0.22661195E+03</pdfrwt>
<totfact> 0.20998448E+04</totfact>
</mgrwt>
</event>
<event>
 6      1 +2.5196620e+02 1.94914200e+02 7.54677100e-03 1.02776600e-01
       21 -1    0    0  501  502 +0.0000000000e+00 +0.0000000000e+00 +6.9440446506e+02 6.9440446506e+02 0.0000000000e+00 0.0000e+00 -1.0000e+00
       21 -1    0    0  504  503 -0.0000000000e+00 -0.0000000000e+00 -9.9288706325e+01 9.9288706325e+01 0.0000000000e+00 0.0000e+00 -1.0000e+00
        6  1    1    2  501    0 -1.9202689597e+01 +7.8384278226e+01 +2.1131892989e+02 2.8477627796e+02 1.7300000000e+02 0.0000e+00 -1.0000e+00
       -6  1    1    2    0  503 +4.5502465809e+01 -8.5575917541e+01 +3.7675727008e+02 4.2575668241e+02 1.7300000000e+02 0.0000e+00 -1.0000e+00
       21  1    1    2  504  505 +1.1506189555e+01 +3.2653180388e+01 -7.2900225362e+00 3.5380319616e+01 0.0000000000e+00 0.0000e+00 1.0000e+00
       21  1    1    2  505  502 -3.7805965767e+01 -2.5461541074e+01 +1.4329581301e+01 4.7779891395e+01 0.0000000000e+00 0.0000e+00 -1.0000e+00
<mgrwt>
<rscale>  4 0.19491417E+03</rscale>
<asrwt>0</asrwt>
<pdfrwt beam="1">  1       21 0.10683145E+00 0.19491417E+03</pdfrwt>
<pdfrwt beam="2">  1       21 0.15275186E-01 0.19491417E+03</pdfrwt>
<totfact> 0.26562749E+04</totfact>
</mgrwt>
</event>
<event>
 6      1 +2.5196620e+02 1.92390900e+02 7.54677100e-03 9.49153200e-02
       21 -1    0    0  505  502 +0.0000000000e+00 +0.0000000000e+00 +5.4026019947e+02 5.4026019947e+02 0.0000000000e+00 0.0000e+00 1.0000e+00
       21 -1    0    0  504  503 -0.0000000000e+00 -0.0000000000e+00 -7.9004447988e+02 7.9004447988e+02 0.0000000000e+00 0.0000e+00 1.0000e+00
        6  1    1    2  501    0 +8.0880518920e+01 -2.3584303912e+01 +3.2746948298e+02 3.7981987839e+02 1.7300000000e+02 0.0000e+00 1.0000e+00
       -6  1    1    2    0  502 -8.1894969620e+01 +1.9161272216e+01 +1.2671814829e+02 2.3034849578e+02 1.7300000000e+02 0.0000e+00 1.0000e+00
       21  1    1    2  504  501 -2.3158815669e+01 -2.5263722202e+00 -6.9180254275e+02 6.9219467743e+02 0.0000000000e+00 0.0000e+00 1.0000e+00
       21  1    1    2  505  503 +2.4173266368e+01 +6.9494039156e+00 -1.2169368925e+01 2.7941627758e+01 0.0000000000e+00 0.0000e+00 1.0000e+00
<mgrwt>
<rscale>  4 0.19239088E+03</rscale>
<asrwt>0</asrwt>
<pdfrwt beam="1">  1       21 0.83116954E-01 0.19239088E+03</pdfrwt>
<pdfrwt beam="2">  1       21 0.12154530E+00 0.19239088E+03</pdfrwt>
<totfact> 0.64537983E+02</totfact>
</mgrwt>
</event>
<event>
 6      1 +2.5196620e+02 2.10779700e+02 7.54677100e-03 1.02776600e-01
       21 -1    0    0  503  502 +0.0000000000e+00 +0.0000000000e+00 +3.9947242542e+02 3.9947242542e+02 0.0000000000e+00 0.0000e+00 -1.0000e+00
       21 -1    0    0  504  503 -0.0000000000e+00 -0.0000000000e+00 -6.4793037511e+02 6.4793037511e+02 0.0000000000e+00 0.0000e+00 1.0000e+00
        6  1    1    2  501    0 +8.3943339911e+01 -7.3805973993e+01 -1.0060339869e+02 2.2922445319e+02 1.7300000000e+02 0.0000e+00 1.0000e+00
       -6  1    1    2    0  502 -1.2561129836e+02 +1.1115468298e+01 +2.9675344082e+02 3.6591441150e+02 1.7300000000e+02 0.0000e+00 -1.0000e+00
       21  1    1    2  504  505 +1.7328237393e+01 +5.2933873177e+01 -2.6867979775e+02 2.7439223105e+02 0.0000000000e+00 0.0000e+00 1.0000e+00
       21  1    1    2  505  501 +2.4339721055e+01 +9.7566325181e+00 -1.7592819406e+02 1.7787170479e+02 0.0000000000e+00 0.0000e+00 1.0000e+00
<mgrwt>
<rscale>  4 0.21077967E+03</rscale>
<asrwt>0</asrwt>
<pdfrwt beam="1">  1       21 0.61457296E-01 0.21077967E+03</pdfrwt>
<pdfrwt beam="2">  1       21 0.99681597E-01 0.21077967E+03</pdfrwt>
<totfact> 0.20029254E+03</totfact>
</mgrwt>
</event>
<event>
 6      1 +2.5196620e+02 3.13436500e+02 7.54677100e-03 1.16128000e-01
       21 -1    0    0  501  502 +0.0000000000e+00 +0.0000000000e+00 +4.9451913681e+02 4.9451913681e+02 0.0000000000e+00 0.0000e+00 1.0000e+00
       21 -1    0    0  504  503 -0.0000000000e+00 -0.0000000000e+00 -8.1735583131e+02 8.1735583131e+02 0.0000000000e+00 0.0000e+00 1.0000e+00
        6  1    1    2  501    0 -1.7568716884e+02 +9.8953769808e+01 +1.8204742448e+02 3.2206846262e+02 1.7300000000e+02 0.0000e+00 -1.0000e+00
       -6  1    1    2    0  503 -2.2028557022e+02 -9.4565630174e+01 -5.0346140945e+02 5.8384140112e+02 1.7300000000e+02 0.0000e+00 1.0000e+00
       21  1    1    2  504  505 +1.7504776190e+01 -1.8746936603e+01 -8.9055609216e+00 2.7150945412e+01 0.0000000000e+00 0.0000e+00 -1.0000e+00
       21  1    1    2  505  502 +3.7846796287e+02 +1.4358796969e+01 +7.4828513867e+00 3.7881415897e+02 0.0000000000e+00 0.0000e+00 1.0000e+00
<mgrwt>
<rscale>  4 0.30074792E+03</rscale>
<asrwt>0</asrwt>
<pdfrwt beam="1">  1       21 0.76079868E-01 0.31343650E+03</pdfrwt>
<pdfrwt beam="2">  1       21 0.12574705E+00 0.31343650E+03</pdfrwt>
<totfact> 0.65369607E+02</totfact>
</mgrwt>
</event>
<event>
 6      1 +2.5196620e+02 1.77926700e+02 7.54677100e-03 1.16128000e-01
       21 -1    0    0  501  502 +0.0000000000e+00 +0.0000000000e+00 +5.9551565684e+02 5.9551565684e+02 0.0000000000e+00 0.0000e+00 -1.0000e+00
       21 -1    0    0  502  503 -0.0000000000e+00 -0.0000000000e+00 -3.7131109847e+02 3.7131109847e+02 0.0000000000e+00 0.0000e+00 1.0000e+00
        6  1    1    2  501    0 -5.1409235836e-01 -3.7100441879e+01 +4.1663446692e+02 4.5264775057e+02 1.7300000000e+02 0.0000e+00 -1.0000e+00
       -6  1    1    2    0  505 -3.4818336085e+01 +5.2556889664e+01 +9.1629526970e+01 2.0566845502e+02 1.7300000000e+02 0.0000e+00 1.0000e+00
       21  1    1    2  504  503 +2.4855481153e+01 +5.2208626449e+00 -2.8419741729e+02 2.8533002707e+02 0.0000000000e+00 0.0000e+00 1.0000e+00
       21  1    1    2  505  504 +1.0476947290e+01 -2.0677310430e+01 +1.3798177435e-01 2.3180522645e+01 0.0000000000e+00 0.0000e+00 -1.0000e+00
<mgrwt>
<rscale>  4 0.17792672E+03</rscale>
<asrwt>0</asrwt>
<pdfrwt beam="1">  1       21 0.91617793E-01 0.17792672E+03</pdfrwt>
<pdfrwt beam="2">  1       21 0.57124784E-01 0.17792672E+03</pdfrwt>
<totfact> 0.29391656E+03</totfact>
</mgrwt>
</event>
<event>
 6      1 +2.5196620e+02 2.94728900e+02 7.54677100e-03 9.28652600e-02
       21 -1    0    0  501  502 +0.0000000000e+00 +0.0000000000e+00 +2.0324987232e+03 2.0324987232e+03 0.0000000000e+00 0.0000e+00 1.0000e+00
       21 -1    0    0  505  503 -0.0000000000e+00 -0.0000000000e+00 -2.1276657602e+03 2.1276657602e+03 0.0000000000e+00 0.0000e+00 1.0000e+00
        6  1    1    2  501    0 +1.1513818847e+02 -4.9100476330e+01 +1.6442410510e+03 1.6580486401e+03 1.7300000000e+02 0.0000e+00 1.0000e+00
       -6  1    1    2    0  504 +1.1591773788e+02 -3.0318943334e+00 +3.2290041269e+02 3.8423923648e+02 1.7300000000e+02 0.0000e+00 -1.0000e+00
       21  1    1    2  504  503 +8.2993582651e+01 +5.4587463123e+00 -1.1286496067e+03 1.1317100633e+03 0.0000000000e+00 0.0000e+00 1.0000e+00
       21  1    1    2  505  502 -3.1404950901e+02 +4.6673624351e+01 -9.3365889396e+02 9.8616654353e+02 0.0000000000e+00 0.0000e+00 1.0000e+00
<mgrwt>
<rscale>  4 0.27068513E+03</rscale>
<asrwt>0</asrwt>
<pdfrwt beam="1">  1       21 0.31269211E+00 0.29472894E+03</pdfrwt>
<pdfrwt beam="2">  1       21 0.32733319E+00 0.29472894E+03</pdfrwt>
<totfact> 0.54865362E-01</totfact>
</mgrwt>
</event>
<event>
 6      1 +2.5196620e+02 3.22903800e+02 7.54677100e-03 1.14954000e-01
       21 -1    0    0  501  502 +0.0000000000e+00 +0.0000000000e+00 +8.9613489074e+02 8.9613489074e+02 0.0000000000e+00 0.0000e+00 1.0000e+00
       21 -1    0    0  504  503 -0.0000000000e+00 -0.0000000000e+00 -1.8857590731e+02 1.8857590731e+02 0.0000000000e+00 0.0000e+00 -1.0000e+00
        6  1    1    2  501    0 -4.1886344189e+01 +2.4972910625e+02 +2.2919340690e+02 3.8285468536e+02 1.7300000000e+02 0.0000e+00 1.0000e+00
       -6  1    1    2    0  503 +5.2739716867e+01 -2.8437704622e+02 +1.5187157433e+02 3.6965626904e+02 1.7300000000e+02 0.0000e+00 -1.0000e+00
       21  1    1    2  504  505 +1.9406890548e+01 +1.8685694712e+01 +1.5558506896e+02 1.5790027318e+02 0.0000000000e+00 0.0000e+00 1.0000e+00
       21  1    1    2  505  502 -3.0260263226e+01 +1.5962245257e+01 +1.7090893324e+02 1.7429957047e+02 0.0000000000e+00 0.0000e+00 -1.0000e+00
<mgrwt>
<rscale>  4 0.32290378E+03</rscale>
<asrwt>0</asrwt>
<pdfrwt beam="1">  1       21 0.13786690E+00 0.32290378E+03</pdfrwt>
<pdfrwt beam="2">  1       21 0.29011679E-01 0.32290378E+03</pdfrwt>
<totfact> 0.38825932E+03</totfact>
</mgrwt>
</event>
<event>
 6      1 +2.5196620e+02 2.60668200e+02 7.54677100e-03 1.14954000e-01
       21 -1    0    0  501  502 +0.0000000000e+00 +0.0000000000e+00 +1.6684981087e+02 1.6684981087e+02 0.0000000000e+00 0.0000e+00 1.0000e+00
       21 -1    0    0  504  503 -0.0000000000e+00 -0.0000000000e+00 -7.3400449712e+02 7.3400449712e+02 0.0000000000e+00 0.0000e+00 -1.0000e+00
        6  1    1    2  501    0 -8.0728985407e+01 +2.4743159337e+02 -2.3832200462e+02 3.9302155204e+02 1.7300000000e+02 0.0000e+00 1.0000e+00
       -6  1    1    2    0  503 +2.4965939580e+01 -1.6090746057e+02 -3.2057901965e+02 3.9901681274e+02 1.7300000000e+02 0.0000e+00 -1.0000e+00
       21  1    1    2  504  505 +3.3561114027e+00 -2.2226398195e+01 -1.2569213083e+01 2.5753861419e+01 0.0000000000e+00 0.0000e+00 1.0000e+00
       21  1    1    2  505  502 +5.2406934425e+01 -6.4297734599e+01 +4.3155511131e+00 8.3062081793e+01 0.0000000000e+00 0.0000e+00 1.0000e+00
<mgrwt>
<rscale>  4 0.26066821E+03</rscale>
<asrwt>0</asrwt>
<pdfrwt beam="1">  1       21 0.25669201E-01 0.26066821E+03</pdfrwt>
<pdfrwt beam="2">  1       21 0.11292377E+00 0.26066821E+03</pdfrwt>
<totfact> 0.84438860E+03</totfact>
</mgrwt>
</event>
<event>
 6      1 +2.5196620e+02 3.13630300e+02 7.54677100e-03 1.09079000e-01
       21 -1    0    0  505  502 +0.0000000000e+00 +0.0000000000e+00 +8.1159927807e+02 8.1159927807e+02 0.0000000000e+00 0.0000e+00 -1.0000e+00
       21 -1    0    0  501  503 -0.0000000000e+00 -0.0000000000e+00 -8.9630679127e+02 8.9630679127e+02 0.0000000000e+00 0.0000e+00 -1.0000e+00
        6  1    1    2  501    0 -1.7048447123e+01 +2.6962634932e+02 -7.4844939044e+02 8.1430615118e+02 1.7300000000e+02 0.0000e+00 -1.0000e+00
       -6  1    1    2    0  504 -1.2174499103e+01 -2.1174706150e+02 +9.9813257012e+01 2.9133609930e+02 1.7300000000e+02 0.0000e+00 -1.0000e+00
       21  1    1    2  504  502 -1.6412590720e+01 -4.1290287019e+01 +9.1509298147e+00 4.5365189879e+01 0.0000000000e+00 0.0000e+00 1.0000e+00
       21  1    1    2  505  503 +4.5635536947e+01 -1.6589000798e+01 +5.5477769041e+02 5.5689862898e+02 0.0000000000e+00 0.0000e+00 -1.0000e+00
<mgrwt>
<rscale>  4 0.31363035E+03</rscale>
<asrwt>0</asrwt>
<pdfrwt beam="1">  1       21 0.12486143E+00 0.31363035E+03</pdfrwt>
<pdfrwt beam="2">  1       21 0.13789335E+00 0.31363035E+03</pdfrwt>
<totfact> 0.15748010E+02</totfact>
</mgrwt>
</event>
<event>
 6      1 +2.5196620e+02 4.65970500e+02 7.54677100e-03 1.11396600e-01
       21 -1    0    0  501  502 +0.0000000000e+00 +0.0000000000e+00 +1.4009475198e+03 1.4009475198e+03 0.0000000000e+00 0.0000e+00 1.0000e+00
       21 -1    0    0  505  503 -0.0000000000e+00 -0.0000000000e+00 -1.3400490593e+03 1.3400490593e+03 0.0000000000e+00 0.0000e+00 1.0000e+00
        6  1    1    2  501    0 -1.1298916174e+02 +1.1783214095e+02 -5.2780473360e+02 5.7892814833e+02 1.7300000000e+02 0.0000e+00 -1.0000e+00
       -6  1    1    2    0  503 +1.1767414147e+01 +1.5884511824e+02 -6.8916817772e+02 7.2818405695e+02 1.7300000000e+02 0.0000e+00 1.0000e+00
       21  1    1    2  504  502 +1.7179677323e+02 -4.9498748337e+01 +1.1499846159e+03 1.1637993273e+03 0.0000000000e+00 0.0000e+00 1.0000e+00
       21  1    1    2  505  504 -7.0575025637e+01 -2.2717851086e+02 +1.2788675584e+02 2.7008504653e+02 0.0000000000e+00 0.0000e+00 1.0000e+00
<mgrwt>
<rscale>  4 0.46597050E+03</rscale>
<asrwt>0</asrwt>
<pdfrwt beam="1">  1       21 0.21553039E+00 0.46597050E+03</pdfrwt>
<pdfrwt beam="2">  1       21 0.20616139E+00 0.46597050E+03</pdfrwt>
<totfact> 0.96273385E+00</totfact>
</mgrwt>
</event>
<event>
 6      1 +2.5196620e+02 3.18079300e+02 7.54677100e-03 1.16558800e-01
       21 -1    0    0  503  502 +0.0000000000e+00 +0.0000000000e+00 +3.1189489344e+02 3.1189489344e+02 0.0000000000e+00 0.0000e+00 1.0000e+00
       21 -1    0    0  504  503 -0.0000000000e+00 -0.0000000000e+00 -1.2692370197e+03 1.2692370197e+03 0.0000000000e+00 0.0000e+00 1.0000e+00
        6  1    1    2  501    0 +7.9119028985e+01 -4.5556279127e+01 -5.9568925565e+02 6.2698475628e+02 1.7300000000e+02 0.0000e+00 1.0000e+00
       -6  1    1    2    0  505 -2.3797804621e+02 +1.8719465011e+02 -5.7486042232e+01 3.5342471979e+02 1.7300000000e+02 0.0000e+00 1.0000e+00
       21  1    1    2  504  501 +6.0087729617e+01 +9.8416760539e+01 -3.2051599083e+02 3.4062720735e+02 0.0000000000e+00 0.0000e+00 1.0000e+00
       21  1    1    2  505  502 +9.8771287611e+01 -2.4005513152e+02 +1.6349162419e+01 2.6009522975e+02 0.0000000000e+00 0.0000e+00 1.0000e+00
<mgrwt>
<rscale>  4 0.28684600E+03</rscale>
<asrwt>0</asrwt>
<pdfrwt beam="1">  1       21 0.47983830E-01 0.31807933E+03</pdfrwt>
<pdfrwt beam="2">  1       21 0.19526723E+00 0.31807933E+03</pdfrwt>
<totfact> 0.53261186E+02</totfact>
</mgrwt>
</event>
<event>
 6      1 +2.5196620e+02 1.79370500e+02 7.54677100e-03 1.13287100e-01
       21 -1    0    0  504  502 +0.0000000000e+00 +0.0000000000e+00 +1.3001954501e+02 1.3001954501e+02 0.0000000000e+00 0.0000e+00 1.0000e+00
       21 -1    0    0  505  503 -0.0000000000e+00 -0.0000000000e+00 -9.9089673037e+02 9.9089673037e+02 0.0000000000e+00 0.0000e+00 1.0000e+00
        6  1    1    2  501    0 -5.0403367206e+01 -2.7800854361e+01 -6.6586739255e+02 6.9037799167e+02 1.7300000000e+02 0.0000e+00 1.0000e+00
       -6  1    1    2    0  503 -7.3273888641e+01 +8.2351168430e+01 -1.1230604322e+02 2.3386411662e+02 1.7300000000e+02 0.0000e+00 1.0000e+00
       21  1    1    2  504  501 +8.4188460062e+01 -6.3269600440e+01 -1.0648024114e+02 1.4976241484e+02 0.0000000000e+00 0.0000e+00 1.0000e+00
       21  1    1    2  505  502 +3.9488795784e+01 +8.7192863713e+00 +2.3776491548e+01 4.6911752234e+01 0.0000000000e+00 0.0000e+00 1.0000e+00
<mgrwt>
<rscale>  4 0.17937046E+03</rscale>
<asrwt>0</asrwt>
<pdfrwt beam="1">  1       21 0.20003006E-01 0.17937046E+03</pdfrwt>
<pdfrwt beam="2">  1       21 0.15244566E+00 0.17937046E+03</pdfrwt>
<totfact> 0.66824587E+03</totfact>
</mgrwt>
</event>
<event>
 6      1 +2.5196620e+02 4.54781400e+02 7.54677100e-03 1.15334700e-01
       21 -1    0    0  501  502 +0.0000000000e+00 +0.0000000000e+00 +2.4415717789e+03 2.4415717789e+03 0.0000000000e+00 0.0000e+00 -1.0000e+00
       21 -1    0    0  502  503 -0.0000000000e+00 -0.0000000000e+00 -5.9069174857e+02 5.9069174857e+02 0.0000000000e+00 0.0000e+00 -1.0000e+00
        6  1    1    2  501    0 -1.4804256444e+02 +2.5691609062e+02 +1.9937083680e+03 2.0230483274e+03 1.7300000000e+02 0.0000e+00 -1.0000e+00
       -6  1    1    2    0  504 +1.3189292660e+02 +3.1454643207e+02 -5.2016479656e+01 3.8596621118e+02 1.7300000000e+02 0.0000e+00 1.0000e+00
       21  1    1    2  504  505 -1.2424380828e+01 -5.6405660003e+02 -4.1423858858e+01 5.6571207285e+02 0.0000000000e+00 0.0000e+00 -1.0000e+00
       21  1    1    2  505  503 +2.8574018670e+01 -7.4059226593e+00 -4.9387999197e+01 5.7536915959e+01 0.0000000000e+00 0.0000e+00 -1.0000e+00
<mgrwt>
<rscale>  4 0.42375486E+03</rscale>
<asrwt>0</asrwt>
<pdfrwt beam="1">  1       21 0.37562642E+00 0.45478139E+03</pdfrwt>
<pdfrwt beam="2">  1       21 0.90875655E-01 0.45478139E+03</pdfrwt>
<totfact> 0.90676042E+00</totfact>
</mgrwt>
</event>
<event>
 6      1 +2.5196620e+02 1.97651700e+02 7.54677100e-03 9.49153200e-02
       21 -1    0    0  505  502 +0.0000000000e+00 +0.0000000000e+00 +8.3665732776e+02 8.3665732776e+02 0.0000000000e+00 0.0000e+00 -1.0000e+00
       21 -1    0    0  504  503 -0.0000000000e+00 -0.0000000000e+00 -3.4464313383e+02 3.4464313383e+02 0.0000000000e+00 0.0000e+00 1.0000e+00
        6  1    1    2  501    0 -7.3335379890e+01 -1.4819029974e+02 -5.4364340383e+01 2.4540359489e+02 1.7300000000e+02 0.0000e+00 -1.0000e+00
       -6  1    1    2    0  502 -4.6087263175e+01 +1.0503031547e+02 +6.3584072520e+02 6.6886308825e+02 1.7300000000e+02 0.0000e+00 -1.0000e+00
       21  1    1    2  504  501 +9.2400731224e+01 +6.3306673607e+01 -1.5623460855e+02 1.9223652869e+02 0.0000000000e+00 0.0000e+00 1.0000e+00
       21  1    1    2  505  503 +2.7021911840e+01 -2.0146689335e+01 +6.6772417661e+01 7.4797249755e+01 0.0000000000e+00 0.0000e+00 -1.0000e+00
<mgrwt>
<rscale>  4 0.19765166E+03</rscale>
<asrwt>0</asrwt>
<pdfrwt beam="1">  1       21 0.12871651E+00 0.19765166E+03</pdfrwt>
<pdfrwt beam="2">  1       21 0.53022021E-01 0.19765166E+03</pdfrwt>
<totfact> 0.14862525E+03</totfact>
</mgrwt>
</event>
<event>
 6      1 +2.5196620e+02 2.22509600e+02 7.54677100e-03 1.06301000e-01
       21 -1    0    0  501  502 +0.0000000000e+00 +0.0000000000e+00 +5.2846499210e+02 5.2846499210e+02 0.0000000000e+00 0.0000e+00 -1.0000e+00
       21 -1    0    0  504  503 -0.0000000000e+00 -0.0000000000e+00 -3.6181886180e+02 3.6181886180e+02 0.0000000000e+00 0.0000e+00 -1.0000e+00
        6  1    1    2  501    0 +3.9476803549e+00 -1.3852499369e+02 +3.9790842273e+02 4.5548311817e+02 1.7300000000e+02 0.0000e+00 -1.0000e+00
       -6  1    1    2    0  503 -8.2634912283e+01 +1.4496709129e+02 -1.4385976873e+02 2.8012250775e+02 1.7300000000e+02 0.0000e+00 -1.0000e+00
       21  1    1    2  504  505 -3.2235225624e+00 -3.5091323865e+01 -4.7559429586e+01 5.9191988064e+01 0.0000000000e+00 0.0000e+00 -1.0000e+00
       21  1    1    2  505  502 +8.1910754491e+01 +2.8649226258e+01 -3.9843094107e+01 9.5486239922e+01 0.0000000000e+00 0.0000e+00 -1.0000e+00
<mgrwt>
<rscale>  4 0.22250960E+03</rscale>
<asrwt>0</asrwt>
<pdfrwt beam="1">  1       21 0.81302307E-01 0.22250960E+03</pdfrwt>
<pdfrwt beam="2">  1       21 0.55664440E-01 0.22250960E+03</pdfrwt>
<totfact> 0.39393735E+03</totfact>
</mgrwt>
</event>
<event>
 6      1 +2.5196620e+02 3.55089700e+02 7.54677100e-03 1.11396600e-01
       21 -1    0    0  505  502 +0.0000000000e+00 +0.0000000000e+00 +2.6880945450e+02 2.6880945450e+02 0.0000000000e+00 0.0000e+00 1.0000e+00
       21 -1    0    0  502  503 -0.0000000000e+00 -0.0000000000e+00 -8.3578918664e+02 8.3578918664e+02 0.0000000000e+00 0.0000e+00 1.0000e+00
        6  1    1    2  501    0 +2.9908923493e+02 +1.6148940136e+02 -1.5200780205e+02 4.1057102806e+02 1.7300000000e+02 0.0000e+00 1.0000e+00
       -6  1    1    2    0  503 -7.7497625122e+01 +2.8304209015e+01 -3.2701509123e+02 3.7904469399e+02 1.7300000000e+02 0.0000e+00 1.0000e+00
       21  1    1    2  504  501 -3.7755299923e+01 -4.3102717627e+01 +1.3458935127e+01 5.8859577589e+01 0.0000000000e+00 0.0000e+00 1.0000e+00
       21  1    1    2  505  504 -1.8383630989e+02 -1.4669089275e+02 -1.0141577399e+02 2.5612334150e+02 0.0000000000e+00 0.0000e+00 1.0000e+00
<mgrwt>
<rscale>  4 0.30436174E+03</rscale>
<asrwt>0</asrwt>
<pdfrwt beam="1">  1       21 0.41355301E-01 0.35508971E+03</pdfrwt>
<pdfrwt beam="2">  1       21 0.12858295E+00 0.35508971E+03</pdfrwt>
<totfact> 0.22439086E+03</totfact>
</mgrwt>
</event>
<event>
 6      1 +2.5196620e+02 2.95659400e+02 7.54677100e-03 9.49153200e-02
       21 -1    0    0  505  502 +0.0000000000e+00 +0.0000000000e+00 +4.1636364237e+02 4.1636364237e+02 0.0000000000e+00 0.0000e+00 1.0000e+00
       21 -1    0    0  501  503 -0.0000000000e+00 -0.0000000000e+00 -9.7300198793e+02 9.7300198793e+02 0.0000000000e+00 0.0000e+00 1.0000e+00
        6  1    1    2  501    0 +3.0105966798e+02 +2.4723764618e+02 -2.6265342932e+01 4.2706234394e+02 1.7300000000e+02 0.0000e+00 1.0000e+00
       -6  1    1    2    0  502 +1.1215541967e+01 -1.8780627865e+02 -2.3794062265e+02 3.4920155582e+02 1.7300000000e+02 0.0000e+00 -1.0000e+00
       21  1    1    2  504  503 -1.9892658427e+02 +3.9228963604e+01 -3.8604794554e+02 4.3605471419e+02 0.0000000000e+00 0.0000e+00 1.0000e+00
       21  1    1    2  505  504 -1.1334862568e+02 -9.8660331135e+01 +9.3615565565e+01 1.7704701635e+02 0.0000000000e+00 0.0000e+00 1.0000e+00
<mgrwt>
<rscale>  4 0.29565939E+03</rscale>
<asrwt>0</asrwt>
<pdfrwt beam="1">  1       21 0.64055946E-01 0.29565939E+03</pdfrwt>
<pdfrwt beam="2">  1       21 0.14969261E+00 0.29565939E+03</pdfrwt>
<totfact> 0.61649662E+02</totfact>
</mgrwt>
</event>
<event>
 6      1 +2.5196620e+02 3.30164200e+02 7.54677100e-03 9.49153200e-02
       21 -1    0    0  505  502 +0.0000000000e+00 +0.0000000000e+00 +3.7307783763e+02 3.7307783763e+02 0.0000000000e+00 0.0000e+00 1.0000e+00
       21 -1    0    0  504  503 -0.0000000000e+00 -0.0000000000e+00 -5.6814734789e+02 5.6814734789e+02 0.0000000000e+00 0.0000e+00 -1.0000e+00
        6  1    1    2  501    0 -3.3450811294e+02 +5.3952977559e-01 -2.8225780381e+02 4.7063195442e+02 1.7300000000e+02 0.0000e+00 -1.0000e+00
       -6  1    1    2    0  502 +1.9067400712e+02 -8.9300825257e+01 +3.3859723457e+01 2.7460279542e+02 1.7300000000e+02 0.0000e+00 1.0000e+00
       21  1    1    2  504  501 +1.4062140060e+02 +6.3361745110e+01 +6.5589620862e+01 1.6760396002e+02 0.0000000000e+00 0.0000e+00 1.0000e+00
       21  1    1    2  505  503 +3.2127052186e+00 +2.5399550372e+01 -1.2261050775e+01 2.8386475654e+01 0.0000000000e+00 0.0000e+00 1.0000e+00
<mgrwt>
<rscale>  4 0.33016422E+03</rscale>
<asrwt>0</asrwt>
<pdfrwt beam="1">  1       21 0.57396590E-01 0.33016422E+03</pdfrwt>
<pdfrwt beam="2">  1       21 0.87407284E-01 0.33016422E+03</pdfrwt>
<totfact> 0.29269065E+03</totfact>
</mgrwt>
</event>
<event>
 6      1 +2.5196620e+02 2.20556500e+02 7.54677100e-03 1.07655700e-01
       21 -1    0    0  501  502 +0.0000000000e+00 +0.0000000000e+00 +1.6136505460e+02 1.6136505460e+02 0.0000000000e+00 0.0000e+00 1.0000e+00
       21 -1    0    0  502  503 -0.0000000000e+00 -0.0000000000e+00 -2.2010812762e+03 2.2010812762e+03 0.0000000000e+00 0.0000e+00 -1.0000e+00
        6  1    1    2  501    0 -9.7477625964e+01 -8.4772750510e+01 +4.6283455538e+01 2.2081545473e+02 1.7300000000e+02 0.0000e+00 1.0000e+00
       -6  1    1    2    0  505 +1.4551888654e+02 +1.9495597065e+02 -1.1439245696e+03 1.1822334786e+03 1.7300000000e+02 0.0000e+00 -1.0000e+00
       21  1    1    2  504  503 -2.3596887385e+01 +3.3780574073e+00 -5.4899975247e+02 5.4951701755e+02 0.0000000000e+00 0.0000e+00 1.0000e+00
       21  1    1    2  505  504 -2.4444373194e+01 -1.1356127755e+02 -3.9307535509e+02 4.0988038001e+02 0.0000000000e+00 0.0000e+00 1.0000e+00
<mgrwt>
<rscale>  4 0.22055653E+03</rscale>
<asrwt>0</asrwt>
<pdfrwt beam="1">  1       21 0.24825395E-01 0.22055653E+03</pdfrwt>
<pdfrwt beam="2">  1       21 0.33862787E+00 0.22055653E+03</pdfrwt>
<totfact> 0.30034264E+02</totfact>
</mgrwt>
</event>
<event>
 6      1 +2.5196620e+02 1.86322000e+02 7.54677100e-03 1.06301000e-01
       21 -1    0    0  504  502 +0.0000000000e+00 +0.0000000000e+00 +4.1291808964e+02 4.1291808964e+02 0.0000000000e+00 0.0000e+00 1.0000e+00
       21 -1    0    0  501  503 -0.0000000000e+00 -0.0000000000e+00 -2.0276865050e+02 2.0276865050e+02 0.0000000000e+00 0.0000e+00 1.0000e+00
        6  1    1    2  501    0 -6.7162028719e+01 -3.1481437169e+01 +1.5202225932e+02 2.4195368630e+02 1.7300000000e+02 0.0000e+00 -1.0000e+00
       -6  1    1    2    0  505 +7.9155019581e+01 -4.9751349640e+01 +9.6877034946e+01 2.1921421901e+02 1.7300000000e+02 0.0000e+00 1.0000e+00
       21  1    1    2  504  503 -3.7294315072e+01 +4.8325871753e+01 -7.6871380124e+01 9.8160403929e+01 0.0000000000e+00 0.0000e+00 1.0000e+00
       21  1    1    2  505  502 +2.5301324210e+01 +3.2906915056e+01 +3.8121524994e+01 5.6358430897e+01 0.0000000000e+00 0.0000e+00 1.0000e+00
<mgrwt>
<rscale>  4 0.18632195E+03</rscale>
<asrwt>0</asrwt>
<pdfrwt beam="1">  1       21 0.63525860E-01 0.18632195E+03</pdfrwt>
<pdfrwt beam="2">  1       21 0.31195177E-01 0.18632195E+03</pdfrwt>
<totfact> 0.22700947E+04</totfact>
</mgrwt>
</event>
<event>
 6      1 +2.5196620e+02 1.83489500e+02 7.54677100e-03 9.49153200e-02
       21 -1    0    0  505  502 +0.0000000000e+00 +0.0000000000e+00 +3.2131243334e+02 3.2131243334e+02 0.0000000000e+00 0.0000e+00 1.0000e+00
       21 -1    0    0  504  503 -0.0000000000e+00 -0.0000000000e+00 -8.1066894495e+02 8.1066894495e+02 0.0000000000e+00 0.0000e+00 -1.0000e+00
        6  1    1    2  501    0 -2.5809144323e+01 -4.3183843718e+01 -8.4890746049e+01 1.9916424140e+02 1.7300000000e+02 0.0000e+00 1.0000e+00
       -6  1    1    2    0  502 -2.8096966288e+01 +8.0265923160e+01 -5.0132276690e+02 5.3710853144e+02 1.7300000000e+02 0.0000e+00 -1.0000e+00
       21  1    1    2  504  501 +2.1138785136e+01 -1.9137479093e+01 -1.4662762976e+02 1.4937453984e+02 0.0000000000e+00 0.0000e+00 1.0000e+00
       21  1    1    2  505  503 +3.2767325475e+01 -1.7944600349e+01 +2.4348463109e+02 2.4633406561e+02 0.0000000000e+00 0.0000e+00 1.0000e+00
<mgrwt>
<rscale>  4 0.18348945E+03</rscale>
<asrwt>0</asrwt>
<pdfrwt beam="1">  1       21 0.49432682E-01 0.18348945E+03</pdfrwt>
<pdfrwt beam="2">  1       21 0.12471830E+00 0.18348945E+03</pdfrwt>
<totfact> 0.18883840E+03</totfact>
</mgrwt>
</event>
<event>
 6      1 +2.5196620e+02 1.75032600e+02 7.54677100e-03 9.49153200e-02
       21 -1    0    0  504  502 +0.0000000000e+00 +0.0000000000e+00 +1.0119397959e+03 1.0119397959e+03 0.0000000000e+00 0.0000e+00 -1.0000e+00
       21 -1    0    0  501  503 -0.0000000000e+00 -0.0000000000e+00 -2.5287486864e+02 2.5287486864e+02 0.0000000000e+00 0.0000e+00 1.0000e+00
        6  1    1    2  501    0 -5.8859915629e+01 +4.7291557409e+01 +2.1966570666e+02 2.8962562689e+02 1.7300000000e+02 0.0000e+00 1.0000e+00
       -6  1    1    2    0  505 -3.4738850083e+01 +2.3688007861e-01 +2.3727382933e+02 2.9569361492e+02 1.7300000000e+02 0.0000e+00 -1.0000e+00
       21  1    1    2  504  503 +5.6324895098e+01 +1.7512625795e-01 -1.8255608980e+02 1.9104776994e+02 0.0000000000e+00 0.0000e+00 1.0000e+00
       21  1    1    2  505  502 +3.7273870614e+01 -4.7703563745e+01 +4.8468148102e+02 4.8844765274e+02 0.0000000000e+00 0.0000e+00 -1.0000e+00
<mgrwt>
<rscale>  4 0.17503265E+03</rscale>
<asrwt>0</asrwt>
<pdfrwt beam="1">  1       21 0.15568304E+00 0.17503265E+03</pdfrwt>
<pdfrwt beam="2">  1       21 0.38903826E-01 0.17503265E+03</pdfrwt>
<totfact> 0.17570045E+03</totfact>
</mgrwt>
</event>
<event>
 6      1 +2.5196620e+02 2.80411600e+02 7.54677100e-03 1.14954000e-01
       21 -1    0    0  504  502 +0.0000000000e+00 +0.0000000000e+00 +1.0586497223e+03 1.0586497223e+03 0.0000000000e+00 0.0000e+00 -1.0000e+00
       21 -1    0    0  502  503 -0.0000000000e+00 -0.0000000000e+00 -7.2280052324e+02 7.2280052324e+02 0.0000000000e+00 0.0000e+00 -1.0000e+00
        6  1    1    2  501    0 +7.2563429842e+01 -2.0875856752e+02 -6.5549911121e+02 7.1305937737e+02 1.7300000000e+02 0.0000e+00 -1.0000e+00
       -6  1    1    2    0  503 -4.3374914783e+01 +2.1203188759e+02 +5.0046037339e+02 5.7203888847e+02 1.7300000000e+02 0.0000e+00 -1.0000e+00
       21  1    1    2  504  505 +2.1449491461e+01 -2.9511870607e+00 +1.9038536263e+02 1.9161256872e+02 0.0000000000e+00 0.0000e+00 -1.0000e+00
       21  1    1    2  505  501 -5.0638006520e+01 -3.2213300731e-01 +3.0050257426e+02 3.0473941099e+02 0.0000000000e+00 0.0000e+00 -1.0000e+00
<mgrwt>
<rscale>  4 0.28041162E+03</rscale>
<asrwt>0</asrwt>
<pdfrwt beam="1">  1       21 0.16286919E+00 0.28041162E+03</pdfrwt>
<pdfrwt beam="2">  1       21 0.11120008E+00 0.28041162E+03</pdfrwt>
<totfact> 0.13838263E+02</totfact>
</mgrwt>
</event>
<event>
 6      1 +2.5196620e+02 1.86618000e+02 7.54677100e-03 1.09711200e-01
       21 -1    0    0  501  502 +0.0000000000e+00 +0.0000000000e+00 +7.2890207074e+02 7.2890207074e+02 0.0000000000e+00 0.0000e+00 -1.0000e+00
       21 -1    0    0  505  503 -0.0000000000e+00 -0.0000000000e+00 -3.3310026774e+02 3.3310026774e+02 0.0000000000e+00 0.0000e+00 -1.0000e+00
        6  1    1    2  501    0 +1.5486521413e+02 +1.3100520293e+01 +1.4554693754e+02 2.7434972062e+02 1.7300000000e+02 0.0000e+00 -1.0000e+00
       -6  1    1    2    0  503 -5.6231398133e+01 -9.0928511634e+00 -2.2617128941e+02 2.9039129159e+02 1.7300000000e+02 0.0000e+00 -1.0000e+00
       21  1    1    2  504  502 +1.4790914834e+01 +2.0186554027e+01 +1.1467801015e+02 1.1737680408e+02 0.0000000000e+00 0.0000e+00 -1.0000e+00
       21  1    1    2  505  504 -1.1342473083e+02 -2.4194223157e+01 +3.6174814472e+02 3.7988452220e+02 0.0000000000e+00 0.0000e+00 -1.0000e+00
<mgrwt>
<rscale>  4 0.18661800E+03</rscale>
<asrwt>0</asrwt>
<pdfrwt beam="1">  1       21 0.11213878E+00 0.18661800E+03</pdfrwt>
<pdfrwt beam="2">  1       21 0.51246196E-01 0.18661800E+03</pdfrwt>
<totfact> 0.22685438E+03</totfact>
</mgrwt>
</event>
<event>
 6      1 +2.5196620e+02 4.24766000e+02 7.54677100e-03 1.16558800e-01
       21 -1    0    0  505  502 +0.0000000000e+00 +0.0000000000e+00 +1.5480905408e+02 1.5480905408e+02 0.0000000000e+00 0.0000e+00 1.0000e+00
       21 -1    0    0  504  503 -0.0000000000e+00 -0.0000000000e+00 -1.4856147172e+03 1.4856147172e+03 0.0000000000e+00 0.0000e+00 -1.0000e+00
        6  1    1    2  501    0 -3.7825134502e+02 -2.8412492684e+01 -4.0782665881e+02 5.8320916779e+02 1.7300000000e+02 0.0000e+00 1.0000e+00
       -6  1    1    2    0  502 +3.9906994139e+02 +7.3127914477e+01 -8.6185432557e+02 9.6815617981e+02 1.7300000000e+02 0.0000e+00 -1.0000e+00
       21  1    1    2  504  501 -2.5089791908e+01 -1.7450238492e+01 -5.1396357581e+01 5.9796271238e+01 0.0000000000e+00 0.0000e+00 -1.0000e+00
       21  1    1    2  505  503 +4.2711955352e+00 -2.7265183301e+01 -9.7283211108e+00 2.9262152405e+01 0.0000000000e+00 0.0000e+00 -1.0000e+00
<mgrwt>
<rscale>  4 0.42476605E+03</rscale>
<asrwt>0</asrwt>
<pdfrwt beam="1">  1       21 0.23816778E-01 0.42476605E+03</pdfrwt>
<pdfrwt beam="2">  1       21 0.22855611E+00 0.42476605E+03</pdfrwt>
<totfact> 0.12461223E+03</totfact>
</mgrwt>
</event>
<event>
 6      1 +2.5196620e+02 1.94497100e+02 7.54677100e-03 1.09711200e-01
       21 -1    0    0  505  502 +0.0000000000e+00 +0.0000000000e+00 +8.8138468685e+02 8.8138468685e+02 0.0000000000e+00 0.0000e+00 -1.0000e+00
       21 -1    0    0  504  503 -0.0000000000e+00 -0.0000000000e+00 -5.1608858456e+02 5.1608858456e+02 0.0000000000e+00 0.0000e+00 -1.0000e+00
        6  1    1    2  501    0 -1.4875919267e+02 +4.2340890829e+01 -1.5518011008e+02 2.7916288257e+02 1.7300000000e+02 0.0000e+00 1.0000e+00
       -6  1    1    2    0  503 +5.8431833532e+01 +3.8246748535e+01 -2.5669196665e+02 3.1732768345e+02 1.7300000000e+02 0.0000e+00 -1.0000e+00
       21  1    1    2  504  502 +2.4946514058e+01 -1.5687229934e+01 +1.4631416344e+01 3.2901308346e+01 0.0000000000e+00 0.0000e+00 -1.0000e+00
       21  1    1    2  505  501 +6.5380845082e+01 -6.4900409430e+01 +7.6253676267e+02 7.6808139704e+02 0.0000000000e+00 0.0000e+00 -1.0000e+00
<mgrwt>
<rscale>  4 0.19449712E+03</rscale>
<asrwt>0</asrwt>
<pdfrwt beam="1">  1       21 0.13559764E+00 0.19449712E+03</pdfrwt>
<pdfrwt beam="2">  1       21 0.79398244E-01 0.19449712E+03</pdfrwt>
<totfact> 0.54233916E+02</totfact>
</mgrwt>
</event>
<event>
 6      1 +2.5196620e+02 2.00858700e+02 7.54677100e-03 1.16268000e-01
       21 -1    0    0  501  502 +0.0000000000e+00 +0.0000000000e+00 +4.3412978959e+02 4.3412978959e+02 0.0000000000e+00 0.0000e+00 -1.0000e+00
       21 -1    0    0  505  503 -0.0000000000e+00 -0.0000000000e+00 -4.2375287112e+02 4.2375287112e+02 0.0000000000e+00 0.0000e+00 -1.0000e+00
        6  1    1    2  501    0 +5.9232188613e+01 -1.8296582559e+02 -4.5813363656e+01 2.6270289262e+02 1.7300000000e+02 0.0000e+00 -1.0000e+00
       -6  1    1    2    0  503 +6.7484065897e+01 +5.9326894738e+01 -1.4080051081e+02 2.4047362315e+02 1.7300000000e+02 0.0000e+00 1.0000e+00
       21  1    1    2  504  502 +1.7260523474e+01 -1.3400816071e+01 +1.4851122816e+02 1.5011026758e+02 0.0000000000e+00 0.0000e+00 -1.0000e+00
       21  1    1    2  505  504 -1.4397677798e+02 +1.3703974692e+02 +4.8479564767e+01 2.0459587737e+02 0.0000000000e+00 0.0000e+00 -1.0000e+00
<mgrwt>
<rscale>  4 0.20085871E+03</rscale>
<asrwt>0</asrwt>
<pdfrwt beam="1">  1       21 0.66789199E-01 0.20085871E+03</pdfrwt>
<pdfrwt beam="2">  1       21 0.65192749E-01 0.20085871E+03</pdfrwt>
<totfact> 0.44192554E+03</totfact>
</mgrwt>
</event>
<event>
 6      1 +2.5196620e+02 2.01441100e+02 7.54677100e-03 9.49153200e-02
       21 -1    0    0  505  502 +0.0000000000e+00 +0.0000000000e+00 +8.6771853434e+02 8.6771853434e+02 0.0000000000e+00 0.0000e+00 -1.0000e+00
       21 -1    0    0  501  503 -0.0000000000e+00 -0.0000000000e+00 -3.0354542512e+02 3.0354542512e+02 0.0000000000e+00 0.0000e+00 1.0000e+00
        6  1    1    2  501    0 +4.1159984446e+01 +8.0211284335e+01 -7.6195449336e+01 2.0943433566e+02 1.7300000000e+02 0.0000e+00 1.0000e+00
       -6  1    1    2    0  502 -6.0986226759e+01 -9.7479754874e+01 +2.5128622028e+02 3.2602973325e+02 1.7300000000e+02 0.0000e+00 -1.0000e+00
       21  1    1    2  504  503 +3.1807650453e+01 -4.5901389288e+00 -1.2095614505e+02 1.2515264691e+02 0.0000000000e+00 0.0000e+00 1.0000e+00
       21  1    1    2  505  504 -1.1981408139e+01 +2.1858609467e+01 +5.1003848333e+02 5.1064724363e+02 0.0000000000e+00 0.0000e+00 -1.0000e+00
<mgrwt>
<rscale>  4 0.20144114E+03</rscale>
<asrwt>0</asrwt>
<pdfrwt beam="1">  1       21 0.13349516E+00 0.20144114E+03</pdfrwt>
<pdfrwt beam="2">  1       21 0.46699296E-01 0.20144114E+03</pdfrwt>
<totfact> 0.17598222E+03</totfact>
</mgrwt>
</event>
<event>
 6      1 +2.5196620e+02 1.78011400e+02 7.54677100e-03 9.49153200e-02
       21 -1    0    0  505  502 +0.0000000000e+00 +0.0000000000e+00 +6.2182290971e+02 6.2182290971e+02 0.0000000000e+00 0.0000e+00 1.0000e+00
       21 -1    0    0  501  503 -0.0000000000e+00 -0.0000000000e+00 -1.2513985374e+03 1.2513985374e+03 0.0000000000e+00 0.0000e+00 -1.0000e+00
        6  1    1    2  501    0 -1.4669127580e+01 +1.0800251502e+02 -1.8921577954e+02 2.7858811493e+02 1.7300000000e+02 0.0000e+00 1.0000e+00
       -6  1    1    2    0  502 +4.7766623515e+01 -3.5252826942e+00 +4.2146470406e+02 4.5809996148e+02 1.7300000000e+02 0.0000e+00 1.0000e+00
       21  1    1    2  504  503 -1.9599616493e+01 -8.8713594667e+01 -9.9631618784e+02 1.0004499952e+03 0.0000000000e+00 0.0000e+00 -1.0000e+00
       21  1    1    2  505  504 -1.3497879441e+01 -1.5763637657e+01 +1.3449163563e+02 1.3608337546e+02 0.0000000000e+00 0.0000e+00 -1.0000e+00
<mgrwt>
<rscale>  4 0.17801144E+03</rscale>
<asrwt>0</asrwt>
<pdfrwt beam="1">  1       21 0.95665065E-01 0.17801144E+03</pdfrwt>
<pdfrwt beam="2">  1       21 0.19252285E+00 0.17801144E+03</pdfrwt>
<totfact> 0.13974480E+02</totfact>
</mgrwt>
</event>
<event>
 6      1 +2.5196620e+02 3.08008600e+02 7.54677100e-03 1.14954000e-01
       21 -1    0    0  501  502 +0.0000000000e+00 +0.0000000000e+00 +2.6616570756e+02 2.6616570756e+02 0.0000000000e+00 0.0000e+00 1.0000e+00
       21 -1    0    0  505  503 -0.0000000000e+00 -0.0000000000e+00 -1.0554323510e+03 1.0554323510e+03 0.0000000000e+00 0.0000e+00 -1.0000e+00
        6  1    1    2  501    0 +2.6278598385e+01 -2.5736483994e+02 -5.8676477017e+02 6.6419057588e+02 1.7300000000e+02 0.0000e+00 -1.0000e+00
       -6  1    1    2    0  503 +6.8843563811e+00 +2.5050774392e+02 -3.6858102447e+02 4.7810301791e+02 1.7300000000e+02 0.0000e+00 -1.0000e+00
       21  1    1    2  504  502 -2.3207440193e+01 -2.2241090005e+01 +5.1830869367e+01 6.0989264500e+01 0.0000000000e+00 0.0000e+00 -1.0000e+00
       21  1    1    2  505  504 -9.9555145732e+00 +2.9098186019e+01 +1.1424828186e+02 1.1831520024e+02 0.0000000000e+00 0.0000e+00 1.0000e+00
<mgrwt>
<rscale>  4 0.30800858E+03</rscale>
<asrwt>0</asrwt>
<pdfrwt beam="1">  1       21 0.40948570E-01 0.30800858E+03</pdfrwt>
<pdfrwt beam="2">  1       21 0.16237421E+00 0.30800858E+03</pdfrwt>
<totfact> 0.12645395E+03</totfact>
</mgrwt>
</event>
<event>
 6      1 +2.5196620e+02 3.29437400e+02 7.54677100e-03 1.07655700e-01
       21 -1    0    0  501  502 +0.0000000000e+00 +0.0000000000e+00 +1.3395768148e+02 1.3395768148e+02 0.0000000000e+00 0.0000e+00 -1.0000e+00
       21 -1    0    0  504  503 -0.0000000000e+00 -0.0000000000e+00 -2.0154921858e+03 2.0154921858e+03 0.0000000000e+00 0.0000e+00 1.0000e+00
        6  1    1    2  501    0 +3.7221379803e+02 -2.2302689150e+01 -8.4690663919e+02 9.4139278566e+02 1.7300000000e+02 0.0000e+00 1.0000e+00
       -6  1    1    2    0  505 -2.4923707286e+02 +1.2309698842e+01 -2.2045992641e+02 3.7523622736e+02 1.7300000000e+02 0.0000e+00 -1.0000e+00
       21  1    1    2  504  502 -2.1144696639e+01 -3.7956217721e+00 -5.3349883119e+02 5.3393118266e+02 0.0000000000e+00 0.0000e+00 1.0000e+00
       21  1    1    2  505  503 -1.0183202853e+02 +1.3788612080e+01 -2.8066910753e+02 2.9888967158e+02 0.0000000000e+00 0.0000e+00 -1.0000e+00
<mgrwt>
<rscale>  4 0.32943739E+03</rscale>
<asrwt>0</asrwt>
<pdfrwt beam="1">  1       21 0.20608875E-01 0.32943739E+03</pdfrwt>
<pdfrwt beam="2">  1       21 0.31007570E+00 0.32943739E+03</pdfrwt>
<totfact> 0.56250057E+02</totfact>
</mgrwt>
</event>
<event>
 6      1 +2.5196620e+02 1.98630200e+02 7.54677100e-03 1.16726300e-01
       21 -1    0    0  504  502 +0.0000000000e+00 +0.0000000000e+00 +1.3811853545e+03 1.3811853545e+03 0.0000000000e+00 0.0000e+00 -1.0000e+00
       21 -1    0    0  505  503 -0.0000000000e+00 -0.0000000000e+00 -1.8170077366e+02 1.8170077366e+02 0.0000000000e+00 0.0000e+00 -1.0000e+00
        6  1    1    2  501    0 +1.0116069070e+01 +1.3430846479e+01 +5.0856695620e+02 5.3744959897e+02 1.7300000000e+02 0.0000e+00 1.0000e+00
       -6  1    1    2    0  503 -1.4583795716e+02 +7.5130023040e+01 +2.2892688318e+02 3.3052949634e+02 1.7300000000e+02 0.0000e+00 -1.0000e+00
       21  1    1    2  504  501 +1.1610081066e+02 -3.9939045104e+01 +5.6560743161e+02 5.7878000333e+02 0.0000000000e+00 0.0000e+00 -1.0000e+00
       21  1    1    2  505  502 +1.9621077426e+01 -4.8621824415e+01 -1.0361669019e+02 1.1612702947e+02 0.0000000000e+00 0.0000e+00 -1.0000e+00
<mgrwt>
<rscale>  4 0.19863017E+03</rscale>
<asrwt>0</asrwt>
<pdfrwt beam="1">  1       21 0.21249005E+00 0.19863017E+03</pdfrwt>
<pdfrwt beam="2">  1       21 0.27953966E-01 0.19863017E+03</pdfrwt>
<totfact> 0.13593398E+03</totfact>
</mgrwt>
</event>
<event>
 6      1 +2.5196620e+02 2.10397800e+02 7.54677100e-03 1.06301000e-01
       21 -1    0    0  505  502 +0.0000000000e+00 +0.0000000000e+00 +1.5346144446e+03 1.5346144446e+03 0.0000000000e+00 0.0000e+00 -1.0000e+00
       21 -1    0    0  501  503 -0.0000000000e+00 -0.0000000000e+00 -8.3388197194e+01 8.3388197194e+01 0.0000000000e+00 0.0000e+00 -1.0000e+00
        6  1    1    2  501    0 +8.4335686470e+01 +9.0855568281e+01 +2.3223820974e+02 3.1500925124e+02 1.7300000000e+02 0.0000e+00 -1.0000e+00
       -6  1    1    2    0  502 -6.6533308643e+01 -9.5140316018e+01 +2.3347316233e+02 3.1291704719e+02 1.7300000000e+02 0.0000e+00 -1.0000e+00
       21  1    1    2  504  503 -2.2506418337e+01 -1.5162269560e+01 +8.2676604953e+01 8.7016402426e+01 0.0000000000e+00 0.0000e+00 -1.0000e+00
       21  1    1    2  505  504 +4.7040405099e+00 +1.9447017297e+01 +9.0283827036e+02 9.0305994092e+02 0.0000000000e+00 0.0000e+00 -1.0000e+00
<mgrwt>
<rscale>  4 0.21039781E+03</rscale>
<asrwt>0</asrwt>
<pdfrwt beam="1">  1       21 0.23609451E+00 0.21039781E+03</pdfrwt>
<pdfrwt beam="2">  1       21 0.12828955E-01 0.21039781E+03</pdfrwt>
<totfact> 0.41110526E+03</totfact>
</mgrwt>
</event>
<event>
 6      1 +2.5196620e+02 2.21565900e+02 7.54677100e-03 1.16321900e-01
       21 -1    0    0  504  502 +0.0000000000e+00 +0.0000000000e+00 +1.3892277719e+03 1.3892277719e+03 0.0000000000e+00 0.0000e+00 -1.0000e+00
       21 -1    0    0  505  503 -0.0000000000e+00 -0.0000000000e+00 -7.1979660220e+02 7.1979660220e+02 0.0000000000e+00 0.0000e+00 -1.0000e+00
        6  1    1    2  501    0 +1.2411025365e+02 +6.8671855609e+01 +1.2391953874e+03 1.2592272975e+03 1.7300000000e+02 0.0000e+00 -1.0000e+00
       -6  1    1    2    0  502 -1.0301740156e+02 -4.3782847274e+01 +5.4468453510e+01 2.1313220115e+02 1.7300000000e+02 0.0000e+00 -1.0000e+00
       21  1    1    2  504  503 -9.7085411531e-01 -6.2201639491e+01 -5.2612405921e+02 5.2978912050e+02 0.0000000000e+00 0.0000e+00 -1.0000e+00
       21  1    1    2  505  501 -2.0121997976e+01 +3.7312631156e+01 -9.8108611959e+01 1.0687575491e+02 0.0000000000e+00 0.0000e+00 -1.0000e+00
<mgrwt>
<rscale>  4 0.22156586E+03</rscale>
<asrwt>0</asrwt>
<pdfrwt beam="1">  1       21 0.21372735E+00 0.22156586E+03</pdfrwt>
<pdfrwt beam="2">  1       21 0.11073794E+00 0.22156586E+03</pdfrwt>
<totfact> 0.67801402E+01</totfact>
</mgrwt>
</event>
<event>
 6      1 +2.5196620e+02 2.32523600e+02 7.54677100e-03 1.02366900e-01
       21 -1    0    0  503  502 +0.0000000000e+00 +0.0000000000e+00 +2.0046510149e+02 2.0046510149e+02 0.0000000000e+00 0.0000e+00 -1.0000e+00
       21 -1    0    0  504  503 -0.0000000000e+00 -0.0000000000e+00 -1.3464142832e+03 1.3464142832e+03 0.0000000000e+00 0.0000e+00 -1.0000e+00
        6  1    1    2  501    0 -9.4211562964e+01 +8.8864896773e+01 -5.9571818248e+02 6.3370493245e+02 1.7300000000e+02 0.0000e+00 1.0000e+00
       -6  1    1    2    0  502 -1.2609707135e+02 +6.3796218794e+01 +6.8858514439e+01 2.3375398167e+02 1.7300000000e+02 0.0000e+00 -1.0000e+00
       21  1    1    2  504  505 +1.0975408115e+02 -9.1329276078e+01 -4.1974224419e+02 4.4336277083e+02 0.0000000000e+00 0.0000e+00 -1.0000e+00
       21  1    1    2  505  501 +1.1055455317e+02 -6.1331839490e+01 -1.9934726948e+02 2.3605769975e+02 0.0000000000e+00 0.0000e+00 -1.0000e+00
<mgrwt>
<rscale>  4 0.22830580E+03</rscale>
<asrwt>0</asrwt>
<pdfrwt beam="1">  1       21 0.30840785E-01 0.23252358E+03</pdfrwt>
<pdfrwt beam="2">  1       21 0.20714066E+00 0.23252358E+03</pdfrwt>
<totfact> 0.11714200E+03</totfact>
</mgrwt>
</event>
<event>
 6      1 +2.5196620e+02 1.79634200e+02 7.54677100e-03 9.49153200e-02
       21 -1    0    0  504  502 +0.0000000000e+00 +0.0000000000e+00 +9.4244618522e+02 9.4244618522e+02 0.0000000000e+00 0.0000e+00 1.0000e+00
       21 -1    0    0  501  503 -0.0000000000e+00 -0.0000000000e+00 -5.4435247741e+02 5.4435247741e+02 0.0000000000e+00 0.0000e+00 1.0000e+00
        6  1    1    2  501    0 +3.7557920687e+01 +3.6945183081e+01 +6.6904709188e+00 1.8096769425e+02 1.7300000000e+02 0.0000e+00 -1.0000e+00
       -6  1    1    2    0  505 -3.2512218997e+00 -5.4419520480e+01 +3.5228956001e+01 1.8477590209e+02 1.7300000000e+02 0.0000e+00 -1.0000e+00
       21  1    1    2  504  503 -1.6827725966e+01 -1.1551647675e+01 -3.8177906087e+02 3.8232429199e+02 0.0000000000e+00 0.0000e+00 1.0000e+00
       21  1    1    2  505  502 -1.7478972822e+01 +2.9025985074e+01 +7.3795334176e+02 7.3873077431e+02 0.0000000000e+00 0.0000e+00 1.0000e+00
<mgrwt>
<rscale>  4 0.17963418E+03</rscale>
<asrwt>0</asrwt>
<pdfrwt beam="1">  1       21 0.14499172E+00 0.17963418E+03</pdfrwt>
<pdfrwt beam="2">  1       21 0.83746536E-01 0.17963418E+03</pdfrwt>
<totfact> 0.41141032E+02</totfact>
</mgrwt>
</event>
<event>
 6      1 +2.5196620e+02 2.04265200e+02 7.54677100e-03 1.15334700e-01
       21 -1    0    0  505  502 +0.0000000000e+00 +0.0000000000e+00 +3.3044438899e+02 3.3044438899e+02 0.0000000000e+00 0.0000e+00 1.0000e+00
       21 -1    0    0  501  503 -0.0000000000e+00 -0.0000000000e+00 -2.9627254307e+02 2.9627254307e+02 0.0000000000e+00 0.0000e+00 1.0000e+00
        6  1    1    2  501    0 -1.2119720242e+02 +2.3733019122e+00 +1.4108413698e+02 2.5402387318e+02 1.7300000000e+02 0.0000e+00 1.0000e+00
       -6  1    1    2    0  504 +6.6245513485e+01 +1.0558183045e+02 -3.0686374725e+01 2.1542201506e+02 1.7300000000e+02 0.0000e+00 1.0000e+00
       21  1    1    2  504  502 +6.7958268273e+01 -7.3014223397e+01 -4.9185275480e+01 1.1121418241e+02 0.0000000000e+00 0.0000e+00 1.0000e+00
       21  1    1    2  505  503 -1.3006579340e+01 -3.4940908967e+01 -2.7040640850e+01 4.6056861413e+01 0.0000000000e+00 0.0000e+00 1.0000e+00
<mgrwt>
<rscale>  4 0.20426519E+03</rscale>
<asrwt>0</asrwt>
<pdfrwt beam="1">  1       21 0.50837599E-01 0.20426519E+03</pdfrwt>
<pdfrwt beam="2">  1       21 0.45580391E-01 0.20426519E+03</pdfrwt>
<totfact> 0.16865183E+04</totfact>
</mgrwt>
</event>
<event>
 6      1 +2.5196620e+02 2.05018500e+02 7.54677100e-03 1.16128000e-01
       21 -1    0    0  501  502 +0.0000000000e+00 +0.0000000000e+00 +9.8632605122e+02 9.8632605122e+02 0.0000000000e+00 0.0000e+00 1.0000e+00
       21 -1    0    0  505  503 -0.0000000000e+00 -0.0000000000e+00 -2.4890563577e+02 2.4890563577e+02 0.0000000000e+00 0.0000e+00 1.0000e+00
        6  1    1    2  501    0 +8.7807790026e+01 -2.3538698785e+01 +5.6806782102e+02 6.0074481072e+02 1.7300000000e+02 0.0000e+00 -1.0000e+00
       -6  1    1    2    0  503 -1.0445334667e+02 +1.5428215482e+02 +3.3538383067e+02 4.2086197120e+02 1.7300000000e+02 0.0000e+00 1.0000e+00
       21  1    1    2  504  502 +3.6676286595e+00 -5.4538244249e+01 -8.9331179127e+01 1.0472789098e+02 0.0000000000e+00 0.0000e+00 1.0000e+00
       21  1    1    2  505  504 +1.2977927986e+01 -7.6205211785e+01 -7.6700057113e+01 1.0889701410e+02 0.0000000000e+00 0.0000e+00 1.0000e+00
<mgrwt>
<rscale>  4 0.20501852E+03</rscale>
<asrwt>0</asrwt>
<pdfrwt beam="1">  1       21 0.15174247E+00 0.20501852E+03</pdfrwt>
<pdfrwt beam="2">  1       21 0.38293175E-01 0.20501852E+03</pdfrwt>
<totfact> 0.18843488E+03</totfact>
</mgrwt>
</event>
<event>
 6      1 +2.5196620e+02 3.70830300e+02 7.54677100e-03 1.07655700e-01
       21 -1    0    0  501  502 +0.0000000000e+00 +0.0000000000e+00 +1.0963930018e+03 1.0963930018e+03 0.0000000000e+00 0.0000e+00 -1.0000e+00
       21 -1    0    0  502  503 -0.0000000000e+00 -0.0000000000e+00 -5.9381740368e+02 5.9381740368e+02 0.0000000000e+00 0.0000e+00 1.0000e+00
        6  1    1    2  501    0 +3.0501094768e+02 -3.8523694105e+02 +3.3192002873e+02 6.1768850113e+02 1.7300000000e+02 0.0000e+00 -1.0000e+00
       -6  1    1    2    0  505 -1.4357587110e+02 +2.2261411554e+02 +3.9402944621e+02 5.0533086160e+02 1.7300000000e+02 0.0000e+00 1.0000e+00
       21  1    1    2  504  503 +2.1892931375e+01 -1.4910331348e+01 -2.9966336298e+02 3.0083176284e+02 0.0000000000e+00 0.0000e+00 1.0000e+00
       21  1    1    2  505  504 -1.8332800795e+02 +1.7753315686e+02 +7.6289486131e+01 2.6635927988e+02 0.0000000000e+00 0.0000e+00 1.0000e+00
<mgrwt>
<rscale>  4 0.37083030E+03</rscale>
<asrwt>0</asrwt>
<pdfrwt beam="1">  1       21 0.16867585E+00 0.37083030E+03</pdfrwt>
<pdfrwt beam="2">  1       21 0.91356523E-01 0.37083030E+03</pdfrwt>
<totfact> 0.18813727E+02</totfact>
</mgrwt>
</event>
<event>
 6      1 +2.5196620e+02 1.93876900e+02 7.54677100e-03 1.14954000e-01
       21 -1    0    0  501  502 +0.0000000000e+00 +0.0000000000e+00 +1.5907848502e+02 1.5907848502e+02 0.0000000000e+00 0.0000e+00 1.0000e+00
       21 -1    0    0  504  503 -0.0000000000e+00 -0.0000000000e+00 -7.3460649238e+02 7.3460649238e+02 0.0000000000e+00 0.0000e+00 1.0000e+00
        6  1    1    2  501    0 -7.2826817480e+01 +7.2937298806e+01 -3.2169230298e+02 3.7952408711e+02 1.7300000000e+02 0.0000e+00 1.0000e+00
       -6  1    1    2    0  503 +3.6589444246e+01 -6.7139777800e+01 -3.5565305762e+02 4.0282084677e+02 1.7300000000e+02 0.0000e+00 1.0000e+00
       21  1    1    2  504  505 +1.5692853394e+01 -1.4145507894e+01 +3.4406537860e+01 4.0375374781e+01 0.0000000000e+00 0.0000e+00 1.0000e+00
       21  1    1    2  505  502 +2.0544519840e+01 +8.3479868884e+00 +6.7410815378e+01 7.0964668748e+01 0.0000000000e+00 0.0000e+00 1.0000e+00
<mgrwt>
<rscale>  4 0.19387693E+03</rscale>
<asrwt>0</asrwt>
<pdfrwt beam="1">  1       21 0.24473613E-01 0.19387693E+03</pdfrwt>
<pdfrwt beam="2">  1       21 0.11301638E+00 0.19387693E+03</pdfrwt>
<totfact> 0.96398262E+03</totfact>
</mgrwt>
</event>
<event>
 6      1 +2.5196620e+02 2.21142300e+02 7.54677100e-03 1.12691600e-01
       21 -1    0    0  503  502 +0.0000000000e+00 +0.0000000000e+00 +1.5085176212e+03 1.5085176212e+03 0.0000000000e+00 0.0000e+00 1.0000e+00
       21 -1    0    0  501  503 -0.0000000000e+00 -0.0000000000e+00 -2.5709970638e+02 2.5709970638e+02 0.0000000000e+00 0.0000e+00 1.0000e+00
        6  1    1    2  501    0 -1.1383136247e+02 -7.1881332675e+01 -1.5107466549e+02 2.6622745843e+02 1.7300000000e+02 0.0000e+00 1.0000e+00
       -6  1    1    2    0  504 +1.6825222798e+02 +1.8362866753e+01 +2.7471088938e+02 3.6611621084e+02 1.7300000000e+02 0.0000e+00 -1.0000e+00
       21  1    1    2  504  505 -6.4621496403e+01 +3.4684477249e+01 +5.2350428932e+02 5.2861677205e+02 0.0000000000e+00 0.0000e+00 1.0000e+00
       21  1    1    2  505  502 +1.0200630891e+01 +1.8833988674e+01 +6.0427740157e+02 6.0465688622e+02 0.0000000000e+00 0.0000e+00 1.0000e+00
<mgrwt>
<rscale>  4 0.22114233E+03</rscale>
<asrwt>0</asrwt>
<pdfrwt beam="1">  1       21 0.23207963E+00 0.22114233E+03</pdfrwt>
<pdfrwt beam="2">  1       21 0.39553802E-01 0.22114233E+03</pdfrwt>
<totfact> 0.50577413E+02</totfact>
</mgrwt>
</event>
<event>
 6      1 +2.5196620e+02 4.63601500e+02 7.54677100e-03 1.09711200e-01
       21 -1    0    0  504  502 +0.0000000000e+00 +0.0000000000e+00 +1.2382728479e+03 1.2382728479e+03 0.0000000000e+00 0.0000e+00 -1.0000e+00
       21 -1    0    0  502  503 -0.0000000000e+00 -0.0000000000e+00 -9.6615520014e+02 9.6615520014e+02 0.0000000000e+00 0.0000e+00 1.0000e+00
        6  1    1    2  501    0 +1.9525634257e+02 -4.7324736576e+02 -6.6605602693e+02 8.5769909614e+02 1.7300000000e+02 0.0000e+00 1.0000e+00
       -6  1    1    2    0  503 -1.9255293585e+02 +2.3199326388e+02 -2.3437699844e+01 3.4839034626e+02 1.7300000000e+02 0.0000e+00 -1.0000e+00
       21  1    1    2  504  505 -2.0831918984e+01 +1.5432718434e+01 +2.5462271560e+02 2.5593918212e+02 0.0000000000e+00 0.0000e+00 -1.0000e+00
       21  1    1    2  505  501 +1.8128512262e+01 +2.2582138344e+02 +7.0698865889e+02 7.4239942348e+02 0.0000000000e+00 0.0000e+00 -1.0000e+00
<mgrwt>
<rscale>  4 0.46360155E+03</rscale>
<asrwt>0</asrwt>
<pdfrwt beam="1">  1       21 0.19050352E+00 0.46360155E+03</pdfrwt>
<pdfrwt beam="2">  1       21 0.14863926E+00 0.46360155E+03</pdfrwt>
<totfact> 0.36489488E+01</totfact>
</mgrwt>
</event>
<event>
 6      1 +2.5196620e+02 1.82585000e+02 7.54677100e-03 1.02776600e-01
       21 -1    0    0  504  502 +0.0000000000e+00 +0.0000000000e+00 +1.0261021151e+02 1.0261021151e+02 0.0000000000e+00 0.0000e+00 1.0000e+00
       21 -1    0    0  501  503 -0.0000000000e+00 -0.0000000000e+00 -5.5085794979e+02 5.5085794979e+02 0.0000000000e+00 0.0000e+00 1.0000e+00
        6  1    1    2  501    0 -4.7291168781e+01 -3.9612370459e+01 -1.8424771621e+02 2.6015728986e+02 1.7300000000e+02 0.0000e+00 -1.0000e+00
       -6  1    1    2    0  502 +6.6240532356e+01 -3.9634883020e+01 -1.1332439061e+02 2.2074906475e+02 1.7300000000e+02 0.0000e+00 -1.0000e+00
       21  1    1    2  504  505 -1.4542055700e+01 +3.3559737491e+01 -5.0322427415e+01 6.2209919349e+01 0.0000000000e+00 0.0000e+00 1.0000e+00
       21  1    1    2  505  503 -4.4073078749e+00 +4.5687515988e+01 -1.0035320404e+02 1.1035188735e+02 0.0000000000e+00 0.0000e+00 1.0000e+00
<mgrwt>
<rscale>  4 0.18258500E+03</rscale>
<asrwt>0</asrwt>
<pdfrwt beam="1">  1       21 0.15786186E-01 0.18258500E+03</pdfrwt>
<pdfrwt beam="2">  1       21 0.84747378E-01 0.18258500E+03</pdfrwt>
<totfact> 0.43333703E+04</totfact>
</mgrwt>
</event>
<event>
 6      1 +2.5196620e+02 2.30380000e+02 7.54677100e-03 1.09079000e-01
       21 -1    0    0  505  502 +0.0000000000e+00 +0.0000000000e+00 +1.6320263027e+03 1.6320263027e+03 0.0000000000e+00 0.0000e+00 1.0000e+00
       21 -1    0    0  502  503 -0.0000000000e+00 -0.0000000000e+00 -8.3833740090e+01 8.3833740090e+01 0.0000000000e+00 0.0000e+00 -1.0000e+00
        6  1    1    2  501    0 -1.1608491887e+02 +1.4638163779e+02 +3.3804365494e+02 4.2320893766e+02 1.7300000000e+02 0.0000e+00 -1.0000e+00
       -6  1    1    2    0  504 +1.8912406970e+01 -1.6726164026e+02 +1.0188310583e+03 1.0470338394e+03 1.7300000000e+02 0.0000e+00 1.0000e+00
       21  1    1    2  504  503 +9.9572663127e+01 -1.3723394199e+01 +7.8347284364e+01 1.2744153074e+02 0.0000000000e+00 0.0000e+00 -1.0000e+00
       21  1    1    2  505  501 -2.4001512288e+00 +3.4603396668e+01 +1.1297056495e+02 1.1817573495e+02 0.0000000000e+00 0.0000e+00 1.0000e+00
<mgrwt>
<rscale>  4 0.23037998E+03</rscale>
<asrwt>0</asrwt>
<pdfrwt beam="1">  1       21 0.25108095E+00 0.23037998E+03</pdfrwt>
<pdfrwt beam="2">  1       21 0.12897500E-01 0.23037998E+03</pdfrwt>
<totfact> 0.32514017E+03</totfact>
</mgrwt>
</event>
<event>
 6      1 +2.5196620e+02 1.92975200e+02 7.54677100e-03 1.07326700e-01
       21 -1    0    0  503  502 +0.0000000000e+00 +0.0000000000e+00 +5.0989081179e+02 5.0989081179e+02 0.0000000000e+00 0.0000e+00 1.0000e+00
       21 -1    0    0  501  503 -0.0000000000e+00 -0.0000000000e+00 -1.6634563957e+02 1.6634563957e+02 0.0000000000e+00 0.0000e+00 -1.0000e+00
        6  1    1    2  501    0 +2.2350195535e+01 +7.7434420702e+01 -1.9931165301e+01 1.9189026057e+02 1.7300000000e+02 0.0000e+00 -1.0000e+00
       -6  1    1    2    0  505 +7.0063149463e+01 -1.1198445548e+02 +2.4050057891e+02 3.2437461620e+02 1.7300000000e+02 0.0000e+00 1.0000e+00
       21  1    1    2  504  502 -2.0871171211e+01 +8.5631080192e+00 +4.8456463784e+01 5.3450551813e+01 0.0000000000e+00 0.0000e+00 -1.0000e+00
       21  1    1    2  505  504 -7.1542173786e+01 +2.5986926756e+01 +7.4519294821e+01 1.0652102277e+02 0.0000000000e+00 0.0000e+00 -1.0000e+00
<mgrwt>
<rscale>  4 0.19297524E+03</rscale>
<asrwt>0</asrwt>
<pdfrwt beam="1">  1       21 0.78444740E-01 0.19297524E+03</pdfrwt>
<pdfrwt beam="2">  1       21 0.25591637E-01 0.19297524E+03</pdfrwt>
<totfact> 0.20820868E+04</totfact>
</mgrwt>
</event>
<event>
 6      1 +2.5196620e+02 3.22027400e+02 7.54677100e-03 1.09079000e-01
       21 -1    0    0  503  502 +0.0000000000e+00 +0.0000000000e+00 +5.6503961914e+02 5.6503961914e+02 0.0000000000e+00 0.0000e+00 1.0000e+00
       21 -1    0    0  501  503 -0.0000000000e+00 -0.0000000000e+00 -5.3503844742e+02 5.3503844742e+02 0.0000000000e+00 0.0000e+00 -1.0000e+00
        6  1    1    2  501    0 -3.0861148270e+01 +2.8825879368e+02 -3.6981860159e+02 5.0073979339e+02 1.7300000000e+02 0.0000e+00 -1.0000e+00
       -6  1    1    2    0  504 +5.5281060109e+01 -1.7718887038e+02 +2.6846948380e+02 3.6940053482e+02 1.7300000000e+02 0.0000e+00 1.0000e+00
       21  1    1    2  504  505 +2.3906844297e+01 -1.0510823155e+02 +2.1690795067e+01 1.0995348168e+02 0.0000000000e+00 0.0000e+00 -1.0000e+00
       21  1    1    2  505  502 -4.8326756136e+01 -5.9616917556e+00 +1.0965949444e+02 1.1998425667e+02 0.0000000000e+00 0.0000e+00 1.0000e+00
<mgrwt>
<rscale>  4 0.32202742E+03</rscale>
<asrwt>0</asrwt>
<pdfrwt beam="1">  1       21 0.86929172E-01 0.32202742E+03</pdfrwt>
<pdfrwt beam="2">  1       21 0.82313607E-01 0.32202742E+03</pdfrwt>
<totfact> 0.13330273E+03</totfact>
</mgrwt>
</event>
<event>
 6      1 +2.5196620e+02 1.85184900e+02 7.54677100e-03 9.49153200e-02
       21 -1    0    0  505  502 +0.0000000000e+00 +0.0000000000e+00 +2.6084390803e+02 2.6084390803e+02 0.0000000000e+00 0.0000e+00 1.0000e+00
       21 -1    0    0  501  503 -0.0000000000e+00 -0.0000000000e+00 -1.1551213642e+03 1.1551213642e+03 0.0000000000e+00 0.0000e+00 1.0000e+00
        6  1    1    2  501    0 -8.4525171347e+01 -6.9029978682e+01 +8.6236227629e+01 2.2198047100e+02 1.7300000000e+02 0.0000e+00 1.0000e+00
       -6  1    1    2    0  502 +4.5156960605e+01 +3.1650273061e+01 -1.0001706530e+03 1.0165191715e+03 1.7300000000e+02 0.0000e+00 1.0000e+00
       21  1    1    2  504  503 -8.1275351257e+00 +2.0933468245e+01 -7.0639342805e+01 7.4122760822e+01 0.0000000000e+00 0.0000e+00 -1.0000e+00
       21  1    1    2  505  504 +4.7495745867e+01 +1.6446237376e+01 +9.0296311999e+01 1.0334286894e+02 0.0000000000e+00 0.0000e+00 1.0000e+00
<mgrwt>
<rscale>  4 0.18518494E+03</rscale>
<asrwt>0</asrwt>
<pdfrwt beam="1">  1       21 0.40129833E-01 0.18518494E+03</pdfrwt>
<pdfrwt beam="2">  1       21 0.17771098E+00 0.18518494E+03</pdfrwt>
<totfact> 0.11380671E+03</totfact>
</mgrwt>
</event>
<event>
 6      1 +2.5196620e+02 1.86203800e+02 7.54677100e-03 9.49153200e-02
       21 -1    0    0  505  502 +0.0000000000e+00 +0.0000000000e+00 +4.7576608323e+02 4.7576608323e+02 0.0000000000e+00 0.0000e+00 1.0000e+00
       21 -1    0    0  501  503 -0.0000000000e+00 -0.0000000000e+00 -2.1776684982e+02 2.1776684982e+02 0.0000000000e+00 0.0000e+00 -1.0000e+00
        6  1    1    2  501    0 -1.1630356838e+02 -2.1636497689e+01 -3.5909303729e+01 2.1263380762e+02 1.7300000000e+02 0.0000e+00 -1.0000e+00
       -6  1    1    2    0  502 +6.4259509618e+01 -1.7643962312e+01 +2.5891818020e+02 3.1844657012e+02 1.7300000000e+02 0.0000e+00 1.0000e+00
       21  1    1    2  504  503 +7.0005831029e+01 +6.2169739572e+01 -2.4020660132e+01 9.6658600289e+01 0.0000000000e+00 0.0000e+00 1.0000e+00
       21  1    1    2  505  504 -1.7961772267e+01 -2.2889279571e+01 +5.9011017062e+01 6.5793955018e+01 0.0000000000e+00 0.0000e+00 1.0000e+00
<mgrwt>
<rscale>  4 0.18620379E+03</rscale>
<asrwt>0</asrwt>
<pdfrwt beam="1">  1       21 0.73194782E-01 0.18620379E+03</pdfrwt>
<pdfrwt beam="2">  1       21 0.33502592E-01 0.18620379E+03</pdfrwt>
<totfact> 0.14463540E+04</totfact>
</mgrwt>
</event>
<event>
 6      1 +2.5196620e+02 2.22896200e+02 7.54677100e-03 9.49153200e-02
       21 -1    0    0  503  502 +0.0000000000e+00 +0.0000000000e+00 +2.5548383331e+02 2.5548383331e+02 0.0000000000e+00 0.0000e+00 -1.0000e+00
       21 -1    0    0  504  503 -0.0000000000e+00 -0.0000000000e+00 -1.9415356691e+03 1.9415356691e+03 0.0000000000e+00 0.0000e+00 1.0000e+00
        6  1    1    2  501    0 -4.5338050178e+01 -1.4472384958e+02 -3.3804360613e+02 4.0890464791e+02 1.7300000000e+02 0.0000e+00 1.0000e+00
       -6  1    1    2    0  505 +1.1041330198e+02 +2.8265189087e+01 +4.4551492958e+01 2.1190529416e+02 1.7300000000e+02 0.0000e+00 -1.0000e+00
       21  1    1    2  504  501 -5.3624820170e+01 +1.7013578815e+01 -1.4563978544e+03 1.4574840629e+03 0.0000000000e+00 0.0000e+00 1.0000e+00
       21  1    1    2  505  502 -1.1450431637e+01 +9.9445081675e+01 +6.3838131860e+01 1.1872549740e+02 0.0000000000e+00 0.0000e+00 -1.0000e+00
<mgrwt>
<rscale>  4 0.22289620E+03</rscale>
<asrwt>0</asrwt>
<pdfrwt beam="1">  1       21 0.39305205E-01 0.22289620E+03</pdfrwt>
<pdfrwt beam="2">  1       21 0.29869779E+00 0.22289620E+03</pdfrwt>
<totfact> 0.20744503E+02</totfact>
</mgrwt>
</event>
<event>
 6      1 +2.5196620e+02 1.94230800e+02 7.54677100e-03 1.16726300e-01
       21 -1    0    0  504  502 +0.0000000000e+00 +0.0000000000e+00 +3.2744139778e+02 3.2744139778e+02 0.0000000000e+00 0.0000e+00 -1.0000e+00
       21 -1    0    0  505  503 -0.0000000000e+00 -0.0000000000e+00 -3.9952491437e+02 3.9952491437e+02 0.0000000000e+00 0.0000e+00 -1.0000e+00
        6  1    1    2  501    0 +1.1040486547e+02 -6.4442952759e+01 +1.4712880604e+02 2.6061084791e+02 1.7300000000e+02 0.0000e+00 -1.0000e+00
       -6  1    1    2    0  503 -3.0433488105e+01 -4.2121241300e+01 -3.9319213162e+01 1.8486588839e+02 1.7300000000e+02 0.0000e+00 1.0000e+00
       21  1    1    2  504  501 -1.9895195450e+01 -4.4687899401e+01 -1.8532930602e+01 5.2309623126e+01 0.0000000000e+00 0.0000e+00 1.0000e+00
       21  1    1    2  505  502 -6.0076181910e+01 +1.5125209346e+02 -1.6136017886e+02 2.2917995273e+02 0.0000000000e+00 0.0000e+00 -1.0000e+00
<mgrwt>
<rscale>  4 0.19423084E+03</rscale>
<asrwt>0</asrwt>
<pdfrwt beam="1">  1       21 0.50375600E-01 0.19423084E+03</pdfrwt>
<pdfrwt beam="2">  1       21 0.61465371E-01 0.19423084E+03</pdfrwt>
<totfact> 0.92190953E+03</totfact>
</mgrwt>
</event>
<event>
 6      1 +2.5196620e+02 1.83016800e+02 7.54677100e-03 1.09711200e-01
       21 -1    0    0  505  502 +0.0000000000e+00 +0.0000000000e+00 +1.6602255638e+02 1.6602255638e+02 0.0000000000e+00 0.0000e+00 1.0000e+00
       21 -1    0    0  504  503 -0.0000000000e+00 -0.0000000000e+00 -6.8638536412e+02 6.8638536412e+02 0.0000000000e+00 0.0000e+00 1.0000e+00
        6  1    1    2  501    0 -4.7978599105e+01 -3.4830261143e+01 -4.6360252430e+02 4.9836873257e+02 1.7300000000e+02 0.0000e+00 1.0000e+00
       -6  1    1    2    0  503 +7.5764532184e+01 -1.1857473406e+01 -1.3631079642e+02 2.3321770352e+02 1.7300000000e+02 0.0000e+00 1.0000e+00
       21  1    1    2  504  502 -6.1565349728e+00 -1.9180935420e+01 +9.5298948705e+00 2.2285199185e+01 0.0000000000e+00 0.0000e+00 -1.0000e+00
       21  1    1    2  505  501 -2.1629398107e+01 +6.5868669969e+01 +7.0020618107e+01 9.8536285226e+01 0.0000000000e+00 0.0000e+00 1.0000e+00
<mgrwt>
<rscale>  4 0.18301678E+03</rscale>
<asrwt>0</asrwt>
<pdfrwt beam="1">  1       21 0.25541932E-01 0.18301678E+03</pdfrwt>
<pdfrwt beam="2">  1       21 0.10559775E+00 0.18301678E+03</pdfrwt>
<totfact> 0.10549572E+04</totfact>
</mgrwt>
</event>
<event>
 6      1 +2.5196620e+02 1.76626300e+02 7.54677100e-03 1.11396600e-01
       21 -1    0    0  501  502 +0.0000000000e+00 +0.0000000000e+00 +1.2800643621e+03 1.2800643621e+03 0.0000000000e+00 0.0000e+00 -1.0000e+00
       21 -1    0    0  504  503 -0.0000000000e+00 -0.0000000000e+00 -1.9042979767e+02 1.9042979767e+02 0.0000000000e+00 0.0000e+00 -1.0000e+00
        6  1    1    2  501    0 +1.1875635919e+02 -3.3408017696e+01 +2.7459434950e+02 3.4720343499e+02 1.7300000000e+02 0.0000e+00 -1.0000e+00
       -6  1    1    2    0  503 +8.6325614080e+00 -5.7353500862e+01 -8.6063427308e+01 2.0174205981e+02 1.7300000000e+02 0.0000e+00 -1.0000e+00
       21  1    1    2  504  505 -1.1544238552e+01 +2.1595316397e+01 +2.4559412130e+01 3.4681289742e+01 0.0000000000e+00 0.0000e+00 -1.0000e+00
       21  1    1    2  505  502 -1.1584468204e+02 +6.9166202161e+01 +8.7654423007e+02 8.8686737518e+02 0.0000000000e+00 0.0000e+00 -1.0000e+00
<mgrwt>
<rscale>  4 0.17662634E+03</rscale>
<asrwt>0</asrwt>
<pdfrwt beam="1">  1       21 0.19693297E+00 0.17662634E+03</pdfrwt>
<pdfrwt beam="2">  1       21 0.29296893E-01 0.17662634E+03</pdfrwt>
<totfact> 0.15961686E+03</totfact>
</mgrwt>
</event>
<event>
 6      1 +2.5196620e+02 2.11811100e+02 7.54677100e-03 1.16321900e-01
       21 -1    0    0  504  502 +0.0000000000e+00 +0.0000000000e+00 +2.2357772407e+02 2.2357772407e+02 0.0000000000e+00 0.0000e+00 1.0000e+00
       21 -1    0    0  501  503 -0.0000000000e+00 -0.0000000000e+00 -1.5143066769e+03 1.5143066769e+03 0.0000000000e+00 0.0000e+00 -1.0000e+00
        6  1    1    2  501    0 -8.8712066633e+01 -8.3597524444e+01 -3.3595427156e+02 3.9705497030e+02 1.7300000000e+02 0.0000e+00 1.0000e+00
       -6  1    1    2    0  502 +7.5582448850e+01 +2.2489935111e+02 -7.2801910087e+01 3.0252527633e+02 1.7300000000e+02 0.0000e+00 1.0000e+00
       21  1    1    2  504  505 -1.4657012002e+01 -1.7399485713e+02 -2.0553071932e+01 1.7581657224e+02 0.0000000000e+00 0.0000e+00 1.0000e+00
       21  1    1    2  505  503 +2.7786629785e+01 +3.2693030463e+01 -8.6141969928e+02 8.6248758214e+02 0.0000000000e+00 0.0000e+00 -1.0000e+00
<mgrwt>
<rscale>  4 0.21181110E+03</rscale>
<asrwt>0</asrwt>
<pdfrwt beam="1">  1       21 0.34396572E-01 0.21181110E+03</pdfrwt>
<pdfrwt beam="2">  1       21 0.23297026E+00 0.21181110E+03</pdfrwt>
<totfact> 0.66804605E+02</totfact>
</mgrwt>
</event>
<event>
 6      1 +2.5196620e+02 2.85638800e+02 7.54677100e-03 9.49153200e-02
       21 -1    0    0  504  502 +0.0000000000e+00 +0.0000000000e+00 +3.5331140303e+02 3.5331140303e+02 0.0000000000e+00 0.0000e+00 -1.0000e+00
       21 -1    0    0  501  503 -0.0000000000e+00 -0.0000000000e+00 -3.3625514662e+02 3.3625514662e+02 0.0000000000e+00 0.0000e+00 1.0000e+00
        6  1    1    2  501    0 +1.5877304443e+02 +1.2849679791e+02 +1.3303643158e+01 2.6800427913e+02 1.7300000000e+02 0.0000e+00 1.0000e+00
       -6  1    1    2    0  505 -2.4243332478e+02 -9.1224478102e+01 +9.0884073046e+00 3.1162063718e+02 1.7300000000e+02 0.0000e+00 -1.0000e+00
       21  1    1    2  504  503 +4.4699590906e+01 +1.0302292412e+01 -1.3723000845e+01 4.7880177614e+01 0.0000000000e+00 0.0000e+00 1.0000e+00
       21  1    1    2  505  502 +3.8960689438e+01 -4.7574612219e+01 +8.3872067994e+00 6.2061455728e+01 0.0000000000e+00 0.0000e+00 1.0000e+00
<mgrwt>
<rscale>  4 0.28563876E+03</rscale>
<asrwt>0</asrwt>
<pdfrwt beam="1">  1       21 0.54355601E-01 0.28563876E+03</pdfrwt>
<pdfrwt beam="2">  1       21 0.51731561E-01 0.28563876E+03</pdfrwt>
<totfact> 0.10761723E+04</totfact>
</mgrwt>
</event>
<event>
 6      1 +2.5196620e+02 2.07485300e+02 7.54677100e-03 1.07326700e-01
       21 -1    0    0  503  502 +0.0000000000e+00 +0.0000000000e+00 +6.2898310112e+02 6.2898310112e+02 0.0000000000e+00 0.0000e+00 -1.0000e+00
       21 -1    0    0  501  503 -0.0000000000e+00 -0.0000000000e+00 -3.8636151213e+02 3.8636151213e+02 0.0000000000e+00 0.0000e+00 1.0000e+00
        6  1    1    2  501    0 -1.1093776272e+02 +9.0601093967e+01 -2.5838128060e+02 3.4235308030e+02 1.7300000000e+02 0.0000e+00 1.0000e+00
       -6  1    1    2    0  504 +1.1390390773e+02 +2.0784639377e+01 +5.1638011166e+02 5.5676163764e+02 1.7300000000e+02 0.0000e+00 -1.0000e+00
       21  1    1    2  504  505 +4.0102697610e+00 -9.0094480885e+01 -2.1451250608e+00 9.0209197485e+01 0.0000000000e+00 0.0000e+00 1.0000e+00
       21  1    1    2  505  502 -6.9764147721e+00 -2.1291252459e+01 -1.3232117008e+01 2.6020697817e+01 0.0000000000e+00 0.0000e+00 1.0000e+00
<mgrwt>
<rscale>  4 0.20748532E+03</rscale>
<asrwt>0</asrwt>
<pdfrwt beam="1">  1       21 0.96766631E-01 0.20748532E+03</pdfrwt>
<pdfrwt beam="2">  1       21 0.59440233E-01 0.20748532E+03</pdfrwt>
<totfact> 0.23151756E+03</totfact>
</mgrwt>
</event>
<event>
 6      1 +2.5196620e+02 2.83614900e+02 7.54677100e-03 1.09079000e-01
       21 -1    0    0  505  502 +0.0000000000e+00 +0.0000000000e+00 +7.1094403615e+02 7.1094403615e+02 0.0000000000e+00 0.0000e+00 -1.0000e+00
       21 -1    0    0  501  503 -0.0000000000e+00 -0.0000000000e+00 -2.1146216115e+02 2.1146216115e+02 0.0000000000e+00 0.0000e+00 1.0000e+00
        6  1    1    2  501    0 +1.9743009187e+02 +9.3682914818e+01 +1.0457877004e+02 2.9769254080e+02 1.7300000000e+02 0.0000e+00 1.0000e+00
       -6  1    1    2    0  504 -2.3976406399e+02 -2.6472129900e+01 +1.2237565907e+02 3.2108002425e+02 1.7300000000e+02 0.0000e+00 1.0000e+00
       21  1    1    2  504  502 -1.3022734917e+01 -3.8980068958e+01 +2.4295348675e+01 4.7742029365e+01 0.0000000000e+00 0.0000e+00 -1.0000e+00
       21  1    1    2  505  503 +5.5356707039e+01 -2.8230715960e+01 +2.4823209722e+02 2.5589160288e+02 0.0000000000e+00 0.0000e+00 -1.0000e+00
<mgrwt>
<rscale>  4 0.28361487E+03</rscale>
<asrwt>0</asrwt>
<pdfrwt beam="1">  1       21 0.10937600E+00 0.28361487E+03</pdfrwt>
<pdfrwt beam="2">  1       21 0.32532641E-01 0.28361487E+03</pdfrwt>
<totfact> 0.56707333E+03</totfact>
</mgrwt>
</event>
<event>
 6      1 +2.5196620e+02 1.85289100e+02 7.54677100e-03 1.06301000e-01
       21 -1    0    0  501  502 +0.0000000000e+00 +0.0000000000e+00 +3.1608007241e+02 3.1608007241e+02 0.0000000000e+00 0.0000e+00 1.0000e+00
       21 -1    0    0  505  503 -0.0000000000e+00 -0.0000000000e+00 -1.7201841677e+02 1.7201841677e+02 0.0000000000e+00 0.0000e+00 1.0000e+00
        6  1    1    2  501    0 -6.0747220409e+01 -4.9399110637e+01 -7.6489544187e+00 1.9004737152e+02 1.7300000000e+02 0.0000e+00 -1.0000e+00
       -6  1    1    2    0  504 +5.2786589909e+01 +1.2810632543e+01 +1.3467885551e+02 2.2587149112e+02 1.7300000000e+02 0.0000e+00 -1.0000e+00
       21  1    1    2  504  503 -1.3592859983e+01 +4.1661136165e+01 -6.7541041055e-01 4.3827757053e+01 0.0000000000e+00 0.0000e+00 -1.0000e+00
       21  1    1    2  505  502 +2.1553490483e+01 -5.0726580718e+00 +1.7707164964e+01 2.8351869479e+01 0.0000000000e+00 0.0000e+00 1.0000e+00
<mgrwt>
<rscale>  4 0.18528907E+03</rscale>
<asrwt>0</asrwt>
<pdfrwt beam="1">  1       21 0.48627703E-01 0.18528907E+03</pdfrwt>
<pdfrwt beam="2">  1       21 0.26464372E-01 0.18528907E+03</pdfrwt>
<totfact> 0.55025190E+04</totfact>
</mgrwt>
</event>
<event>
 6      1 +2.5196620e+02 1.77397600e+02 7.54677100e-03 1.06301000e-01
       21 -1    0    0  505  502 +0.0000000000e+00 +0.0000000000e+00 +7.5532020660e+01 7.5532020660e+01 0.0000000000e+00 0.0000e+00 1.0000e+00
       21 -1    0    0  501  503 -0.0000000000e+00 -0.0000000000e+00 -7.6730652412e+02 7.6730652412e+02 0.0000000000e+00 0.0000e+00 1.0000e+00
        6  1    1    2  501    0 +1.2122687012e+01 -1.5058684899e+01 -1.0026131472e+02 2.0088567585e+02 1.7300000000e+02 0.0000e+00 1.0000e+00
       -6  1    1    2    0  502 -3.1156647557e+01 +5.0864262609e+01 -5.1214969757e+02 5.4386048084e+02 1.7300000000e+02 0.0000e+00 1.0000e+00
       21  1    1    2  504  503 +1.4444038917e+01 -1.4905214303e+01 -7.2813492091e+01 7.5713937317e+01 0.0000000000e+00 0.0000e+00 1.0000e+00
       21  1    1    2  505  504 +4.5899216280e+00 -2.0900363407e+01 -6.5499990721e+00 2.2378450772e+01 0.0000000000e+00 0.0000e+00 -1.0000e+00
<mgrwt>
<rscale>  4 0.17739762E+03</rscale>
<asrwt>0</asrwt>
<pdfrwt beam="1">  1       21 0.11620311E-01 0.17739762E+03</pdfrwt>
<pdfrwt beam="2">  1       21 0.11804715E+00 0.17739762E+03</pdfrwt>
<totfact> 0.34479001E+04</totfact>
</mgrwt>
</event>
<event>
 6      1 +2.5196620e+02 2.26838400e+02 7.54677100e-03 1.06301000e-01
       21 -1    0    0  501  502 +0.0000000000e+00 +0.0000000000e+00 +2.4708024815e+02 2.4708024815e+02 0.0000000000e+00 0.0000e+00 -1.0000e+00
       21 -1    0    0  504  503 -0.0000000000e+00 -0.0000000000e+00 -4.4355424767e+02 4.4355424767e+02 0.0000000000e+00 0.0000e+00 -1.0000e+00
        6  1    1    2  501    0 -1.3489545352e+02 -4.6855407195e+01 +8.8711517158e+00 2.2449924253e+02 1.7300000000e+02 0.0000e+00 -1.0000e+00
       -6  1    1    2    0  503 +1.3830240406e+02 +6.5140700734e+01 -1.0568799398e+02 2.5390907414e+02 1.7300000000e+02 0.0000e+00 -1.0000e+00
       21  1    1    2  504  505 -2.0104989229e+01 +2.2650931108e+01 -1.4545256433e+02 1.4857228457e+02 0.0000000000e+00 0.0000e+00 1.0000e+00
       21  1    1    2  505  502 +1.6698038694e+01 -4.0936224647e+01 +4.5795407074e+01 6.3653894567e+01 0.0000000000e+00 0.0000e+00 -1.0000e+00
<mgrwt>
<rscale>  4 0.22683837E+03</rscale>
<asrwt>0</asrwt>
<pdfrwt beam="1">  1       21 0.38012346E-01 0.22683837E+03</pdfrwt>
<pdfrwt beam="2">  1       21 0.68239115E-01 0.22683837E+03</pdfrwt>
<totfact> 0.12801316E+04</totfact>
</mgrwt>
</event>
<event>
 6      1 +2.5196620e+02 3.26290200e+02 7.54677100e-03 1.06301000e-01
       21 -1    0    0  505  502 +0.0000000000e+00 +0.0000000000e+00 +3.2402784549e+02 3.2402784549e+02 0.0000000000e+00 0.0000e+00 1.0000e+00
       21 -1    0    0  504  503 -0.0000000000e+00 -0.0000000000e+00 -1.6471703873e+03 1.6471703873e+03 0.0000000000e+00 0.0000e+00 -1.0000e+00
        6  1    1    2  501    0 +3.0211123016e+02 -1.5780552828e+02 +1.9987751373e+01 3.8275617611e+02 1.7300000000e+02 0.0000e+00 1.0000e+00
       -6  1    1    2    0  502 +1.5218592688e+01 +2.7496420329e+02 -2.7092631537e+02 4.2328121505e+02 1.7300000000e+02 0.0000e+00 -1.0000e+00
       21  1    1    2  504  501 -1.0796870523e+02 -9.6822120100e+01 -8.3761684277e+02 8.5007866668e+02 0.0000000000e+00 0.0000e+00 -1.0000e+00
       21  1    1    2  505  503 -2.0936111762e+02 -2.0336554907e+01 -2.3458713502e+02 3.1508217492e+02 0.0000000000e+00 0.0000e+00 1.0000e+00
<mgrwt>
<rscale>  4 0.32629023E+03</rscale>
<asrwt>0</asrwt>
<pdfrwt beam="1">  1       21 0.49850438E-01 0.32629023E+03</pdfrwt>
<pdfrwt beam="2">  1       21 0.25341083E+00 0.32629023E+03</pdfrwt>
<totfact> 0.21067375E+02</totfact>
</mgrwt>
</event>
<event>
 6      1 +2.5196620e+02 1.92150900e+02 7.54677100e-03 1.14954000e-01
       21 -1    0    0  504  502 +0.0000000000e+00 +0.0000000000e+00 +6.5309897999e+02 6.5309897999e+02 0.0000000000e+00 0.0000e+00 1.0000e+00
       21 -1    0    0  502  503 -0.0000000000e+00 -0.0000000000e+00 -7.3765701386e+02 7.3765701386e+02 0.0000000000e+00 0.0000e+00 -1.0000e+00
        6  1    1    2  501    0 -8.1599620334e+01 -6.3678471392e+00 -2.5869816947e+02 3.2179619389e+02 1.7300000000e+02 0.0000e+00 1.0000e+00
       -6  1    1    2    0  503 +8.1172845559e+01 -3.6823966226e+01 -4.2202786663e+02 4.6473815806e+02 1.7300000000e+02 0.0000e+00 -1.0000e+00
       21  1    1    2  504  505 -2.1770648037e+01 +3.6169446366e+01 +5.5742586302e+02 5.5902216658e+02 0.0000000000e+00 0.0000e+00 1.0000e+00
       21  1    1    2  505  501 +2.2197422813e+01 +7.0223669991e+00 +3.8742139214e+01 4.5199475315e+01 0.0000000000e+00 0.0000e+00 1.0000e+00
<mgrwt>
<rscale>  4 0.19215091E+03</rscale>
<asrwt>0</asrwt>
<pdfrwt beam="1">  1       21 0.10047677E+00 0.19215091E+03</pdfrwt>
<pdfrwt beam="2">  1       21 0.11348570E+00 0.19215091E+03</pdfrwt>
<totfact> 0.49180258E+02</totfact>
</mgrwt>
</event>
<event>
 6      1 +2.5196620e+02 1.91254200e+02 7.54677100e-03 1.09711200e-01
       21 -1    0    0  504  502 +0.0000000000e+00 +0.0000000000e+00 +1.7503647892e+03 1.7503647892e+03 0.0000000000e+00 0.0000e+00 1.0000e+00
       21 -1    0    0  505  503 -0.0000000000e+00 -0.0000000000e+00 -1.1155046104e+02 1.1155046104e+02 0.0000000000e+00 0.0000e+00 -1.0000e+00
        6  1    1    2  501    0 +5.5324814313e+01 +6.1704153044e+01 +1.6447709460e+01 1.9252990606e+02 1.7300000000e+02 0.0000e+00 -1.0000e+00
       -6  1    1    2    0  503 -2.3759899969e+01 -7.4515775845e+01 +7.2654870541e+02 7.5094550736e+02 1.7300000000e+02 0.0000e+00 1.0000e+00
       21  1    1    2  504  501 +6.7037589354e+01 +6.1650360045e+01 +4.6141573112e+02 4.7031827756e+02 0.0000000000e+00 0.0000e+00 1.0000e+00
       21  1    1    2  505  502 -9.8602503698e+01 -4.8838737245e+01 +4.3440218214e+02 4.4812155922e+02 0.0000000000e+00 0.0000e+00 1.0000e+00
<mgrwt>
<rscale>  4 0.19125424E+03</rscale>
<asrwt>0</asrwt>
<pdfrwt beam="1">  1       21 0.26928687E+00 0.19125424E+03</pdfrwt>
<pdfrwt beam="2">  1       21 0.17161611E-01 0.19125424E+03</pdfrwt>
<totfact> 0.15761169E+03</totfact>
</mgrwt>
</event>
<event>
 6      1 +2.5196620e+02 1.82757500e+02 7.54677100e-03 1.16321900e-01
       21 -1    0    0  504  502 +0.0000000000e+00 +0.0000000000e+00 +1.9037420117e+02 1.9037420117e+02 0.0000000000e+00 0.0000e+00 -1.0000e+00
       21 -1    0    0  501  503 -0.0000000000e+00 -0.0000000000e+00 -7.0854362282e+02 7.0854362282e+02 0.0000000000e+00 0.0000e+00 -1.0000e+00
        6  1    1    2  501    0 +2.2324023688e+01 -9.3052351355e+01 +3.9557073786e+01 2.0162059471e+02 1.7300000000e+02 0.0000e+00 -1.0000e+00
       -6  1    1    2    0  502 +1.1781379116e-01 +6.5088319113e+00 -5.1275257523e+01 1.8055617078e+02 1.7300000000e+02 0.0000e+00 -1.0000e+00
       21  1    1    2  504  505 -1.6061068393e+00 +4.6260748965e+01 -1.3907125261e+02 1.4657233632e+02 0.0000000000e+00 0.0000e+00 -1.0000e+00
       21  1    1    2  505  503 -2.0835730640e+01 +4.0282770479e+01 -3.6737998531e+02 3.7016872217e+02 0.0000000000e+00 0.0000e+00 -1.0000e+00
<mgrwt>
<rscale>  4 0.18275747E+03</rscale>
<asrwt>0</asrwt>
<pdfrwt beam="1">  1       21 0.29288339E-01 0.18275747E+03</pdfrwt>
<pdfrwt beam="2">  1       21 0.10900671E+00 0.18275747E+03</pdfrwt>
<totfact> 0.75100878E+03</totfact>
</mgrwt>
</event>
<event>
 6      1 +2.5196620e+02 1.89382700e+02 7.54677100e-03 1.15334700e-01
       21 -1    0    0  501  502 +0.0000000000e+00 +0.0000000000e+00 +6.3755062763e+02 6.3755062763e+02 0.0000000000e+00 0.0000e+00 -1.0000e+00
       21 -1    0    0  502  503 -0.0000000000e+00 -0.0000000000e+00 -2.3215624194e+02 2.3215624194e+02 0.0000000000e+00 0.0000e+00 1.0000e+00
        6  1    1    2  501    0 +5.0746231535e+01 -6.0944248407e+00 +3.1633639193e+01 1.8314477650e+02 1.7300000000e+02 0.0000e+00 1.0000e+00
       -6  1    1    2    0  504 -4.1599313778e+01 -8.0849512142e+01 +4.9283325817e+02 5.3017050737e+02 1.7300000000e+02 0.0000e+00 -1.0000e+00
       21  1    1    2  504  505 -1.5792752121e+01 +3.8079875875e+01 -2.0209699800e+01 4.5912089173e+01 0.0000000000e+00 0.0000e+00 -1.0000e+00
       21  1    1    2  505  503 +6.6458343640e+00 +4.8864061108e+01 -9.8862811877e+01 1.1047949654e+02 0.0000000000e+00 0.0000e+00 1.0000e+00
<mgrwt>
<rscale>  4 0.18938269E+03</rscale>
<asrwt>0</asrwt>
<pdfrwt beam="1">  1       21 0.98084711E-01 0.18938269E+03</pdfrwt>
<pdfrwt beam="2">  1       21 0.35716345E-01 0.18938269E+03</pdfrwt>
<totfact> 0.65119486E+03</totfact>
</mgrwt>
</event>
<event>
 6      1 +2.5196620e+02 1.81913500e+02 7.54677100e-03 1.06301000e-01
       21 -1    0    0  505  502 +0.0000000000e+00 +0.0000000000e+00 +4.5397029723e+02 4.5397029723e+02 0.0000000000e+00 0.0000e+00 1.0000e+00
       21 -1    0    0  502  503 -0.0000000000e+00 -0.0000000000e+00 -1.1723821995e+02 1.1723821995e+02 0.0000000000e+00 0.0000e+00 1.0000e+00
        6  1    1    2  501    0 -2.9917795730e+00 +7.9533650306e+01 +2.1033523146e+02 2.8373308209e+02 1.7300000000e+02 0.0000e+00 1.0000e+00
       -6  1    1    2    0  504 +2.9285402680e+01 -2.9020919186e+01 +1.1609556949e+02 2.1238415622e+02 1.7300000000e+02 0.0000e+00 1.0000e+00
       21  1    1    2  504  503 -1.6932715609e+01 -2.6840653319e+01 -1.8435225433e+01 3.6701431378e+01 0.0000000000e+00 0.0000e+00 1.0000e+00
       21  1    1    2  505  501 -9.3609074982e+00 -2.3672077802e+01 +2.8736501766e+01 3.8389847491e+01 0.0000000000e+00 0.0000e+00 -1.0000e+00
<mgrwt>
<rscale>  4 0.18191349E+03</rscale>
<asrwt>0</asrwt>
<pdfrwt beam="1">  1       21 0.69841583E-01 0.18191349E+03</pdfrwt>
<pdfrwt beam="2">  1       21 0.18036649E-01 0.18191349E+03</pdfrwt>
<totfact> 0.52350039E+04</totfact>
</mgrwt>
</event>
<event>
 6      1 +2.5196620e+02 1.92212900e+02 7.54677100e-03 9.28652600e-02
       21 -1    0    0  501  502 +0.0000000000e+00 +0.0000000000e+00 +2.4910506563e+02 2.4910506563e+02 0.0000000000e+00 0.0000e+00 -1.0000e+00
       21 -1    0    0  505  503 -0.0000000000e+00 -0.0000000000e+00 -8.1316357269e+02 8.1316357269e+02 0.0000000000e+00 0.0000e+00 -1.0000e+00
        6  1    1    2  501    0 -1.6268633107e+02 +5.0645951630e+01 -1.6259416166e+01 2.4336232935e+02 1.7300000000e+02 0.0000e+00 -1.0000e+00
       -6  1    1    2    0  504 +3.2881824813e+01 +6.5219396363e+01 +4.0917754971e+01 1.9219273331e+02 1.7300000000e+02 0.0000e+00 1.0000e+00
       21  1    1    2  504  503 -9.4234070055e+00 -3.2109287377e+01 -2.3614656714e+02 2.3850578213e+02 0.0000000000e+00 0.0000e+00 -1.0000e+00
       21  1    1    2  505  502 +1.3922791326e+02 -8.3756060616e+01 -3.5257027873e+02 3.8820779354e+02 0.0000000000e+00 0.0000e+00 -1.0000e+00
<mgrwt>
<rscale>  4 0.19221287E+03</rscale>
<asrwt>0</asrwt>
<pdfrwt beam="1">  1       21 0.38323856E-01 0.19221287E+03</pdfrwt>
<pdfrwt beam="2">  1       21 0.12510209E+00 0.19221287E+03</pdfrwt>
<totfact> 0.31270337E+03</totfact>
</mgrwt>
</event>
<event>
 6      1 +2.5196620e+02 1.74076200e+02 7.54677100e-03 9.49153200e-02
       21 -1    0    0  505  502 +0.0000000000e+00 +0.0000000000e+00 +1.0534290260e+03 1.0534290260e+03 0.0000000000e+00 0.0000e+00 -1.0000e+00
       21 -1    0    0  504  503 -0.0000000000e+00 -0.0000000000e+00 -2.0354126908e+02 2.0354126908e+02 0.0000000000e+00 0.0000e+00 -1.0000e+00
        6  1    1    2  501    0 -2.0421659027e+01 +4.3610964512e-02 +2.0350286031e+01 1.7538580387e+02 1.7300000000e+02 0.0000e+00 -1.0000e+00
       -6  1    1    2    0  502 -3.5762226657e+01 +4.5422717562e+01 +1.0782006333e+02 2.1188753192e+02 1.7300000000e+02 0.0000e+00 1.0000e+00
       21  1    1    2  504  501 -2.1051525370e+01 -7.6967485676e+00 -6.9909544034e+01 7.3414923592e+01 0.0000000000e+00 0.0000e+00 -1.0000e+00
       21  1    1    2  505  503 +7.7235411054e+01 -3.7769579959e+01 +7.9162695163e+02 7.9628203574e+02 0.0000000000e+00 0.0000e+00 -1.0000e+00
<mgrwt>
<rscale>  4 0.17407618E+03</rscale>
<asrwt>0</asrwt>
<pdfrwt beam="1">  1       21 0.16206600E+00 0.17407618E+03</pdfrwt>
<pdfrwt beam="2">  1       21 0.31314042E-01 0.17407618E+03</pdfrwt>
<totfact> 0.24267476E+03</totfact>
</mgrwt>
</event>
<event>
 6      1 +2.5196620e+02 1.88435100e+02 7.54677100e-03 9.49153200e-02
       21 -1    0    0  505  502 +0.0000000000e+00 +0.0000000000e+00 +1.5899864443e+02 1.5899864443e+02 0.0000000000e+00 0.0000e+00 -1.0000e+00
       21 -1    0    0  501  503 -0.0000000000e+00 -0.0000000000e+00 -8.0628269987e+02 8.0628269987e+02 0.0000000000e+00 0.0000e+00 -1.0000e+00
        6  1    1    2  501    0 -4.7155818688e+01 +3.8614280938e+01 -4.3518695263e+02 4.7226202226e+02 1.7300000000e+02 0.0000e+00 -1.0000e+00
       -6  1    1    2    0  502 +3.7049285783e+01 +4.9625155012e+01 -8.3092554040e+01 2.0166476669e+02 1.7300000000e+02 0.0000e+00 -1.0000e+00
       21  1    1    2  504  503 -7.7471811418e+01 -5.8900542996e+01 -1.6554099465e+02 1.9202858235e+02 0.0000000000e+00 0.0000e+00 -1.0000e+00
       21  1    1    2  505  504 +8.7578344324e+01 -2.9338892955e+01 +3.6536445883e+01 9.9325972998e+01 0.0000000000e+00 0.0000e+00 -1.0000e+00
<mgrwt>
<rscale>  4 0.18843514E+03</rscale>
<asrwt>0</asrwt>
<pdfrwt beam="1">  1       21 0.24461330E-01 0.18843514E+03</pdfrwt>
<pdfrwt beam="2">  1       21 0.12404349E+00 0.18843514E+03</pdfrwt>
<totfact> 0.77026057E+03</totfact>
</mgrwt>
</event>
<event>
 6      1 +2.5196620e+02 3.40361200e+02 7.54677100e-03 1.16558800e-01
       21 -1    0    0  505  502 +0.0000000000e+00 +0.0000000000e+00 +2.7678195243e+02 2.7678195243e+02 0.0000000000e+00 0.0000e+00 1.0000e+00
       21 -1    0    0  504  503 -0.0000000000e+00 -0.0000000000e+00 -6.1255336458e+02 6.1255336458e+02 0.0000000000e+00 0.0000e+00 1.0000e+00
        6  1    1    2  501    0 +2.2783248238e+02 -9.1223246867e+01 -7.3235068482e+01 3.0906584420e+02 1.7300000000e+02 0.0000e+00 1.0000e+00
       -6  1    1    2    0  502 -2.7168489892e+02 +2.1081353188e+02 -2.1821149109e+02 4.4249325912e+02 1.7300000000e+02 0.0000e+00 1.0000e+00
       21  1    1    2  504  501 +3.8006914502e+01 -8.1394785946e+01 -4.1725284084e+01 9.9048655019e+01 0.0000000000e+00 0.0000e+00 1.0000e+00
       21  1    1    2  505  503 +5.8455020371e+00 -3.8195499070e+01 -2.5995684919e+00 3.8727558658e+01 0.0000000000e+00 0.0000e+00 -1.0000e+00
<mgrwt>
<rscale>  4 0.34036120E+03</rscale>
<asrwt>0</asrwt>
<pdfrwt beam="1">  1       21 0.42581840E-01 0.34036120E+03</pdfrwt>
<pdfrwt beam="2">  1       21 0.94238977E-01 0.34036120E+03</pdfrwt>
<totfact> 0.45811486E+03</totfact>
</mgrwt>
</event>
<event>
 6      1 +2.5196620e+02 1.83587300e+02 7.54677100e-03 9.49153200e-02
       21 -1    0    0  504  502 +0.0000000000e+00 +0.0000000000e+00 +8.3821905677e+02 8.3821905677e+02 0.0000000000e+00 0.0000e+00 -1.0000e+00
       21 -1    0    0  501  503 -0.0000000000e+00 -0.0000000000e+00 -3.5334111518e+02 3.5334111518e+02 0.0000000000e+00 0.0000e+00 -1.0000e+00
        6  1    1    2  501    0 -5.0434744211e+01 -7.4459956765e+01 +3.1212665616e+02 3.6802173587e+02 1.7300000000e+02 0.0000e+00 -1.0000e+00
       -6  1    1    2    0  505 -2.6695421235e+01 -1.8031217390e+01 +6.6689469417e+01 1.8818675736e+02 1.7300000000e+02 0.0000e+00 1.0000e+00
       21  1    1    2  504  503 +6.4663722061e+01 +1.3543124981e+02 -2.4182178254e+02 2.8460638589e+02 0.0000000000e+00 0.0000e+00 -1.0000e+00
       21  1    1    2  505  502 +1.2466443385e+01 -4.2940075655e+01 +3.4788359855e+02 3.5074529284e+02 0.0000000000e+00 0.0000e+00 -1.0000e+00
<mgrwt>
<rscale>  4 0.18358729E+03</rscale>
<asrwt>0</asrwt>
<pdfrwt beam="1">  1       21 0.12895678E+00 0.18358729E+03</pdfrwt>
<pdfrwt beam="2">  1       21 0.54360172E-01 0.18358729E+03</pdfrwt>
<totfact> 0.14232170E+03</totfact>
</mgrwt>
</event>
<event>
 6      1 +2.5196620e+02 2.55839800e+02 7.54677100e-03 1.12043500e-01
       21 -1    0    0  503  502 +0.0000000000e+00 +0.0000000000e+00 +1.1612881683e+02 1.1612881683e+02 0.0000000000e+00 0.0000e+00 -1.0000e+00
       21 -1    0    0  505  503 -0.0000000000e+00 -0.0000000000e+00 -1.2527602490e+03 1.2527602490e+03 0.0000000000e+00 0.0000e+00 1.0000e+00
        6  1    1    2  501    0 -2.0889408435e+01 +1.9023938843e+02 -8.9669843604e+01 2.7312464764e+02 1.7300000000e+02 0.0000e+00 -1.0000e+00
       -6  1    1    2    0  504 -3.4797470207e+01 -1.7821544267e+02 -8.4304243213e+02 8.7955736045e+02 1.7300000000e+02 0.0000e+00 1.0000e+00
       21  1    1    2  504  502 +2.2549900839e+01 -2.7068835296e+01 -1.0890109395e+02 1.1445815015e+02 0.0000000000e+00 0.0000e+00 -1.0000e+00
       21  1    1    2  505  501 +3.3136977803e+01 +1.5044889537e+01 -9.5018062443e+01 1.0174890756e+02 0.0000000000e+00 0.0000e+00 -1.0000e+00
<mgrwt>
<rscale>  4 0.25583978E+03</rscale>
<asrwt>0</asrwt>
<pdfrwt beam="1">  1       21 0.17865973E-01 0.25583978E+03</pdfrwt>
<pdfrwt beam="2">  1       21 0.19273234E+00 0.25583978E+03</pdfrwt>
<totfact> 0.40430288E+03</totfact>
</mgrwt>
</event>
<event>
 6      1 +2.5196620e+02 2.48500800e+02 7.54677100e-03 1.09711200e-01
       21 -1    0    0  505  502 +0.0000000000e+00 +0.0000000000e+00 +1.1099584918e+03 1.1099584918e+03 0.0000000000e+00 0.0000e+00 1.0000e+00
       21 -1    0    0  504  503 -0.0000000000e+00 -0.0000000000e+00 -3.7667099343e+02 3.7667099343e+02 0.0000000000e+00 0.0000e+00 1.0000e+00
        6  1    1    2  501    0 -1.0178316072e+02 -1.8503816327e+02 +4.9092532693e+02 5.6172556493e+02 1.7300000000e+02 0.0000e+00 1.0000e+00
       -6  1    1    2    0  503 -1.3573044109e+01 +1.7773066029e+02 -2.6632629913e+02 3.6418554714e+02 1.7300000000e+02 0.0000e+00 1.0000e+00
       21  1    1    2  504  502 -3.1007419799e+01 -6.4260949470e+01 +1.8639977764e+02 1.9958909493e+02 0.0000000000e+00 0.0000e+00 1.0000e+00
       21  1    1    2  505  501 +1.4636362463e+02 +7.1568452449e+01 +3.2228869289e+02 3.6112927819e+02 0.0000000000e+00 0.0000e+00 1.0000e+00
<mgrwt>
<rscale>  4 0.24850082E+03</rscale>
<asrwt>0</asrwt>
<pdfrwt beam="1">  1       21 0.17076284E+00 0.24850082E+03</pdfrwt>
<pdfrwt beam="2">  1       21 0.57949384E-01 0.24850082E+03</pdfrwt>
<totfact> 0.55553567E+02</totfact>
</mgrwt>
</event>
<event>
 6      1 +2.5196620e+02 2.47774600e+02 7.54677100e-03 9.49153200e-02
       21 -1    0    0  504  502 +0.0000000000e+00 +0.0000000000e+00 +1.2686506472e+02 1.2686506472e+02 0.0000000000e+00 0.0000e+00 -1.0000e+00
       21 -1    0    0  501  503 -0.0000000000e+00 -0.0000000000e+00 -9.0455025876e+02 9.0455025876e+02 0.0000000000e+00 0.0000e+00 -1.0000e+00
        6  1    1    2  501    0 -1.6853277400e+02 -4.4551516065e+01 -5.3358569310e+02 5.8739324595e+02 1.7300000000e+02 0.0000e+00 -1.0000e+00
       -6  1    1    2    0  505 +1.6916083851e+02 +5.0843687916e+00 -2.2258907522e+02 3.2881018308e+02 1.7300000000e+02 0.0000e+00 -1.0000e+00
       21  1    1    2  504  503 -2.0068595868e+01 -1.4876370898e+00 -5.5184477949e+01 5.8739153984e+01 0.0000000000e+00 0.0000e+00 1.0000e+00
       21  1    1    2  505  502 +1.9440531362e+01 +4.0954784363e+01 +3.3674052234e+01 5.6472740466e+01 0.0000000000e+00 0.0000e+00 -1.0000e+00
<mgrwt>
<rscale>  4 0.24777463E+03</rscale>
<asrwt>0</asrwt>
<pdfrwt beam="1">  1       21 0.19517702E-01 0.24777463E+03</pdfrwt>
<pdfrwt beam="2">  1       21 0.13916158E+00 0.24777463E+03</pdfrwt>
<totfact> 0.84511724E+03</totfact>
</mgrwt>
</event>
<event>
 6      1 +2.5196620e+02 2.05686700e+02 7.54677100e-03 1.13287100e-01
       21 -1    0    0  505  502 +0.0000000000e+00 +0.0000000000e+00 +2.9393617611e+02 2.9393617611e+02 0.0000000000e+00 0.0000e+00 -1.0000e+00
       21 -1    0    0  502  503 -0.0000000000e+00 -0.0000000000e+00 -6.7018913621e+02 6.7018913621e+02 0.0000000000e+00 0.0000e+00 1.0000e+00
        6  1    1    2  501    0 -9.0546883452e+01 +6.3987506044e+01 -5.0326440880e+02 5.4359654542e+02 1.7300000000e+02 0.0000e+00 1.0000e+00
       -6  1    1    2    0  503 +7.1106604849e+01 -7.4247746143e-01 -5.6240435957e+00 1.8712918103e+02 1.7300000000e+02 0.0000e+00 1.0000e+00
       21  1    1    2  504  501 -2.8596180506e+01 -1.4469122973e+01 -3.7901520990e+01 4.9634890475e+01 0.0000000000e+00 0.0000e+00 -1.0000e+00
       21  1    1    2  505  504 +4.8036459109e+01 -4.8775905610e+01 +1.7053701328e+02 1.8376469539e+02 0.0000000000e+00 0.0000e+00 -1.0000e+00
<mgrwt>
<rscale>  4 0.20568667E+03</rscale>
<asrwt>0</asrwt>
<pdfrwt beam="1">  1       21 0.45220951E-01 0.20568667E+03</pdfrwt>
<pdfrwt beam="2">  1       21 0.10310602E+00 0.20568667E+03</pdfrwt>
<totfact> 0.35417448E+03</totfact>
</mgrwt>
</event>
<event>
 6      1 +2.5196620e+02 1.87822900e+02 7.54677100e-03 1.15679100e-01
       21 -1    0    0  503  502 +0.0000000000e+00 +0.0000000000e+00 +3.5136436462e+02 3.5136436462e+02 0.0000000000e+00 0.0000e+00 1.0000e+00
       21 -1    0    0  505  503 -0.0000000000e+00 -0.0000000000e+00 -3.4881415467e+02 3.4881415467e+02 0.0000000000e+00 0.0000e+00 -1.0000e+00
        6  1    1    2  501    0 +4.6541782606e+01 +6.4207463189e+01 +2.7513874363e+02 3.3454306764e+02 1.7300000000e+02 0.0000e+00 1.0000e+00
       -6  1    1    2    0  504 -2.7860537681e+01 -4.7608344462e+00 -2.2320293251e+02 2.8380878102e+02 1.7300000000e+02 0.0000e+00 -1.0000e+00
       21  1    1    2  504  502 -2.1138585999e+01 -3.6852152578e+01 -3.3369641687e+01 5.4022717017e+01 0.0000000000e+00 0.0000e+00 -1.0000e+00
       21  1    1    2  505  501 +2.4573410740e+00 -2.2594476165e+01 -1.6015959480e+01 2.7803953611e+01 0.0000000000e+00 0.0000e+00 -1.0000e+00
<mgrwt>
<rscale>  4 0.18782293E+03</rscale>
<asrwt>0</asrwt>
<pdfrwt beam="1">  1       21 0.54056056E-01 0.18782293E+03</pdfrwt>
<pdfrwt beam="2">  1       21 0.53663716E-01 0.18782293E+03</pdfrwt>
<totfact> 0.10664589E+04</totfact>
</mgrwt>
</event>
<event>
 6      1 +2.5196620e+02 2.48060500e+02 7.54677100e-03 1.09711200e-01
       21 -1    0    0  504  502 +0.0000000000e+00 +0.0000000000e+00 +9.2542647383e+02 9.2542647383e+02 0.0000000000e+00 0.0000e+00 1.0000e+00
       21 -1    0    0  505  503 -0.0000000000e+00 -0.0000000000e+00 -9.7096787701e+01 9.7096787701e+01 0.0000000000e+00 0.0000e+00 1.0000e+00
        6  1    1    2  501    0 -1.2285864737e+02 +1.0868325237e+02 +4.1793711905e+02 4.8115146478e+02 1.7300000000e+02 0.0000e+00 1.0000e+00
       -6  1    1    2    0  503 +1.4222870185e+02 -1.2070254650e+02 +2.2960766118e+02 3.4270510127e+02 1.7300000000e+02 0.0000e+00 1.0000e+00
       21  1    1    2  504  501 +2.4986090050e+01 -5.0570560857e-01 +1.1893369042e+02 1.2153099667e+02 0.0000000000e+00 0.0000e+00 1.0000e+00
       21  1    1    2  505  502 -4.4356144524e+01 +1.2524999742e+01 +6.1851215471e+01 7.7135698810e+01 0.0000000000e+00 0.0000e+00 1.0000e+00
<mgrwt>
<rscale>  4 0.24806052E+03</rscale>
<asrwt>0</asrwt>
<pdfrwt beam="1">  1       21 0.14237330E+00 0.24806052E+03</pdfrwt>
<pdfrwt beam="2">  1       21 0.14937968E-01 0.24806052E+03</pdfrwt>
<totfact> 0.13062305E+04</totfact>
</mgrwt>
</event>
<event>
 6      1 +2.5196620e+02 2.72314200e+02 7.54677100e-03 1.06301000e-01
       21 -1    0    0  505  502 +0.0000000000e+00 +0.0000000000e+00 +6.0882213498e+02 6.0882213498e+02 0.0000000000e+00 0.0000e+00 -1.0000e+00
       21 -1    0    0  504  503 -0.0000000000e+00 -0.0000000000e+00 -3.1058248454e+02 3.1058248454e+02 0.0000000000e+00 0.0000e+00 -1.0000e+00
        6  1    1    2  501    0 -2.0351133536e+02 -1.7662011064e+01 -5.9307428926e+01 2.7418092819e+02 1.7300000000e+02 0.0000e+00 -1.0000e+00
       -6  1    1    2    0  502 +1.7446048671e+02 +2.9632354274e+01 +3.1300128324e+02 3.9901546481e+02 1.7300000000e+02 0.0000e+00 -1.0000e+00
       21  1    1    2  504  501 -2.5505118898e+01 -4.9093028873e-01 -9.3717922698e+01 9.7127756781e+01 0.0000000000e+00 0.0000e+00 -1.0000e+00
       21  1    1    2  505  503 +5.4555967551e+01 -1.1479412922e+01 +1.3826371882e+02 1.4908046974e+02 0.0000000000e+00 0.0000e+00 -1.0000e+00
<mgrwt>
<rscale>  4 0.27231418E+03</rscale>
<asrwt>0</asrwt>
<pdfrwt beam="1">  1       21 0.93664944E-01 0.27231418E+03</pdfrwt>
<pdfrwt beam="2">  1       21 0.47781921E-01 0.27231418E+03</pdfrwt>
<totfact> 0.37899256E+03</totfact>
</mgrwt>
</event>
<event>
 6      1 +2.5196620e+02 2.40126400e+02 7.54677100e-03 9.49153200e-02
       21 -1    0    0  505  502 +0.0000000000e+00 +0.0000000000e+00 +1.6955061713e+03 1.6955061713e+03 0.0000000000e+00 0.0000e+00 1.0000e+00
       21 -1    0    0  504  503 -0.0000000000e+00 -0.0000000000e+00 -4.1921047086e+02 4.1921047086e+02 0.0000000000e+00 0.0000e+00 -1.0000e+00
        6  1    1    2  501    0 -9.6686866685e+01 +1.0283897903e+02 -1.2717749704e+01 2.2364021766e+02 1.7300000000e+02 0.0000e+00 -1.0000e+00
       -6  1    1    2    0  502 +1.8053636002e+02 -8.7910251260e+01 -1.6308241842e+02 3.1120164647e+02 1.7300000000e+02 0.0000e+00 -1.0000e+00
       21  1    1    2  504  501 -5.5681475708e+01 -2.7254353847e+01 -4.8656254946e+01 7.8807726055e+01 0.0000000000e+00 0.0000e+00 -1.0000e+00
       21  1    1    2  505  503 -2.8168017625e+01 +1.2325626073e+01 +1.5007521235e+03 1.5010670520e+03 0.0000000000e+00 0.0000e+00 1.0000e+00
<mgrwt>
<rscale>  4 0.24012635E+03</rscale>
<asrwt>0</asrwt>
<pdfrwt beam="1">  1       21 0.26084710E+00 0.24012635E+03</pdfrwt>
<pdfrwt beam="2">  1       21 0.64493919E-01 0.24012635E+03</pdfrwt>
<totfact> 0.11928258E+02</totfact>
</mgrwt>
</event>
<event>
 6      1 +2.5196620e+02 1.92051900e+02 7.54677100e-03 1.16128000e-01
       21 -1    0    0  501  502 +0.0000000000e+00 +0.0000000000e+00 +2.5889372798e+02 2.5889372798e+02 0.0000000000e+00 0.0000e+00 1.0000e+00
       21 -1    0    0  504  503 -0.0000000000e+00 -0.0000000000e+00 -5.0203544799e+02 5.0203544799e+02 0.0000000000e+00 0.0000e+00 -1.0000e+00
        6  1    1    2  501    0 -3.9813647476e+01 -1.1036575122e+02 +4.3640769490e+01 2.1353979097e+02 1.7300000000e+02 0.0000e+00 1.0000e+00
       -6  1    1    2    0  503 +3.5721434514e+01 +4.6789577614e+01 +6.1722890828e+01 1.9288338630e+02 1.7300000000e+02 0.0000e+00 1.0000e+00
       21  1    1    2  504  505 +3.6803971287e+00 +2.5587523931e+01 -1.7426840116e+02 1.7617531707e+02 0.0000000000e+00 0.0000e+00 -1.0000e+00
       21  1    1    2  505  502 +4.1181583401e-01 +3.7988649671e+01 -1.7423697917e+02 1.7833068162e+02 0.0000000000e+00 0.0000e+00 -1.0000e+00
<mgrwt>
<rscale>  4 0.19205191E+03</rscale>
<asrwt>0</asrwt>
<pdfrwt beam="1">  1       21 0.39829805E-01 0.19205191E+03</pdfrwt>
<pdfrwt beam="2">  1       21 0.77236222E-01 0.19205191E+03</pdfrwt>
<totfact> 0.90491313E+03</totfact>
</mgrwt>
</event>
<event>
 6      1 +2.5196620e+02 3.94899900e+02 7.54677100e-03 1.06301000e-01
       21 -1    0    0  505  502 +0.0000000000e+00 +0.0000000000e+00 +8.2942329048e+02 8.2942329048e+02 0.0000000000e+00 0.0000e+00 1.0000e+00
       21 -1    0    0  501  503 -0.0000000000e+00 -0.0000000000e+00 -4.8494420449e+02 4.8494420449e+02 0.0000000000e+00 0.0000e+00 -1.0000e+00
        6  1    1    2  501    0 -2.2191634062e+02 -2.9136467072e+02 +5.4927645811e+01 4.0876188649e+02 1.7300000000e+02 0.0000e+00 1.0000e+00
       -6  1    1    2    0  502 -5.1914057397e+01 +9.6290272790e+01 +3.8568325884e+02 4.3663195272e+02 1.7300000000e+02 0.0000e+00 1.0000e+00
       21  1    1    2  504  503 +2.9386029357e+02 +2.0030364470e+02 -1.6862270878e+02 3.9358485760e+02 0.0000000000e+00 0.0000e+00 -1.0000e+00
       21  1    1    2  505  504 -2.0029895549e+01 -5.2292467705e+00 +7.2490890117e+01 7.5388798156e+01 0.0000000000e+00 0.0000e+00 1.0000e+00
<mgrwt>
<rscale>  4 0.33577612E+03</rscale>
<asrwt>0</asrwt>
<pdfrwt beam="1">  1       21 0.12760358E+00 0.39489986E+03</pdfrwt>
<pdfrwt beam="2">  1       21 0.74606801E-01 0.39489986E+03</pdfrwt>
<totfact> 0.62784557E+02</totfact>
</mgrwt>
</event>
<event>
 6      1 +2.5196620e+02 1.89631400e+02 7.54677100e-03 1.02776600e-01
       21 -1    0    0  505  502 +0.0000000000e+00 +0.0000000000e+00 +1.2467028580e+02 1.2467028580e+02 0.0000000000e+00 0.0000e+00 -1.0000e+00
       21 -1    0    0  501  503 -0.0000000000e+00 -0.0000000000e+00 -1.5340221910e+03 1.5340221910e+03 0.0000000000e+00 0.0000e+00 -1.0000e+00
        6  1    1    2  501    0 +3.6887579093e+01 -2.2715327861e+01 -6.0192961447e+02 6.2779370847e+02 1.7300000000e+02 0.0000e+00 -1.0000e+00
       -6  1    1    2    0  502 -7.9757083137e+01 +2.1154678192e+01 +2.8170969651e+01 1.9373000865e+02 1.7300000000e+02 0.0000e+00 -1.0000e+00
       21  1    1    2  504  503 +1.9597129679e+01 -1.3326162604e+01 -3.7711217364e+02 3.7785609113e+02 0.0000000000e+00 0.0000e+00 1.0000e+00
       21  1    1    2  505  504 +2.3272374365e+01 +1.4886812273e+01 -4.5848108674e+02 4.5931266854e+02 0.0000000000e+00 0.0000e+00 -1.0000e+00
<mgrwt>
<rscale>  4 0.18963135E+03</rscale>
<asrwt>0</asrwt>
<pdfrwt beam="1">  1       21 0.19180045E-01 0.18963135E+03</pdfrwt>
<pdfrwt beam="2">  1       21 0.23600340E+00 0.18963135E+03</pdfrwt>
<totfact> 0.20155132E+03</totfact>
</mgrwt>
</event>
<event>
 6      1 +2.5196620e+02 1.94805500e+02 7.54677100e-03 9.49153200e-02
       21 -1    0    0  504  502 +0.0000000000e+00 +0.0000000000e+00 +2.3694974493e+02 2.3694974493e+02 0.0000000000e+00 0.0000e+00 1.0000e+00
       21 -1    0    0  501  503 -0.0000000000e+00 -0.0000000000e+00 -6.5623684402e+02 6.5623684402e+02 0.0000000000e+00 0.0000e+00 1.0000e+00
        6  1    1    2  501    0 -6.8756795581e+01 +1.1445218694e+01 +5.9054750308e+01 1.9563985663e+02 1.7300000000e+02 0.0000e+00 1.0000e+00
       -6  1    1    2    0  505 +5.6477913564e+01 -5.7435392127e+01 -3.9881207625e+02 4.4211836781e+02 1.7300000000e+02 0.0000e+00 1.0000e+00
       21  1    1    2  504  503 +2.6654583607e+01 +5.8231242268e+00 -1.6109006856e+02 1.6338416628e+02 0.0000000000e+00 0.0000e+00 -1.0000e+00
       21  1    1    2  505  502 -1.4375701590e+01 +4.0167049206e+01 +8.1560295419e+01 9.2044198225e+01 0.0000000000e+00 0.0000e+00 1.0000e+00
<mgrwt>
<rscale>  4 0.19480545E+03</rscale>
<asrwt>0</asrwt>
<pdfrwt beam="1">  1       21 0.36453808E-01 0.19480545E+03</pdfrwt>
<pdfrwt beam="2">  1       21 0.10095951E+00 0.19480545E+03</pdfrwt>
<totfact> 0.58145554E+03</totfact>
</mgrwt>
</event>
<event>
 6      1 +2.5196620e+02 2.76354300e+02 7.54677100e-03 1.13287100e-01
       21 -1    0    0  505  502 +0.0000000000e+00 +0.0000000000e+00 +1.0089821295e+03 1.0089821295e+03 0.0000000000e+00 0.0000e+00 1.0000e+00
       21 -1    0    0  502  503 -0.0000000000e+00 -0.0000000000e+00 -6.3829918904e+02 6.3829918904e+02 0.0000000000e+00 0.0000e+00 -1.0000e+00
        6  1    1    2  501    0 +9.2566942985e+01 -2.1303049832e+02 -3.6456347062e+02 4.6560300285e+02 1.7300000000e+02 0.0000e+00 -1.0000e+00
       -6  1    1    2    0  503 -1.6264089685e+01 +1.8173368079e+02 -1.0635689481e+02 2.7300630107e+02 1.7300000000e+02 0.0000e+00 -1.0000e+00
       21  1    1    2  504  501 +3.0046495318e+00 -2.3705476104e+01 -2.6233560725e+01 3.5484887268e+01 0.0000000000e+00 0.0000e+00 -1.0000e+00
       21  1    1    2  505  504 -7.9307502832e+01 +5.5002293627e+01 +8.6783686658e+02 8.7318712731e+02 0.0000000000e+00 0.0000e+00 1.0000e+00
<mgrwt>
<rscale>  4 0.27635430E+03</rscale>
<asrwt>0</asrwt>
<pdfrwt beam="1">  1       21 0.15522802E+00 0.27635430E+03</pdfrwt>
<pdfrwt beam="2">  1       21 0.98199875E-01 0.27635430E+03</pdfrwt>
<totfact> 0.21406582E+02</totfact>
</mgrwt>
</event>
<event>
 6      1 +2.5196620e+02 2.14129700e+02 7.54677100e-03 9.49153200e-02
       21 -1    0    0  504  502 +0.0000000000e+00 +0.0000000000e+00 +3.4009570323e+02 3.4009570323e+02 0.0000000000e+00 0.0000e+00 -1.0000e+00
       21 -1    0    0  501  503 -0.0000000000e+00 -0.0000000000e+00 -2.4429269997e+02 2.4429269997e+02 0.0000000000e+00 0.0000e+00 -1.0000e+00
        6  1    1    2  501    0 -6.8567048258e+01 +6.3544461522e+01 +5.0935538917e+01 2.0313238989e+02 1.7300000000e+02 0.0000e+00 -1.0000e+00
       -6  1    1    2    0  505 +6.0350471559e+01 -1.5455393574e+02 -2.4450347208e+01 2.4094795693e+02 1.7300000000e+02 0.0000e+00 -1.0000e+00
       21  1    1    2  504  503 -1.9110897919e+01 +2.3416526504e+01 -1.0693527840e+01 3.2061061593e+01 0.0000000000e+00 0.0000e+00 -1.0000e+00
       21  1    1    2  505  502 +2.7327474618e+01 +6.7592947713e+01 +8.0011339387e+01 1.0824699479e+02 0.0000000000e+00 0.0000e+00 -1.0000e+00
<mgrwt>
<rscale>  4 0.21412967E+03</rscale>
<asrwt>0</asrwt>
<pdfrwt beam="1">  1       21 0.52322416E-01 0.21412967E+03</pdfrwt>
<pdfrwt beam="2">  1       21 0.37583492E-01 0.21412967E+03</pdfrwt>
<totfact> 0.23370702E+04</totfact>
</mgrwt>
</event>
<event>
 6      1 +2.5196620e+02 2.33462000e+02 7.54677100e-03 1.12691600e-01
       21 -1    0    0  505  502 +0.0000000000e+00 +0.0000000000e+00 +1.1866349099e+02 1.1866349099e+02 0.0000000000e+00 0.0000e+00 1.0000e+00
       21 -1    0    0  502  503 -0.0000000000e+00 -0.0000000000e+00 -2.2361270189e+03 2.2361270189e+03 0.0000000000e+00 0.0000e+00 -1.0000e+00
        6  1    1    2  501    0 +5.1323041021e+01 -6.0749798367e+01 -6.9278154589e+02 7.1847050243e+02 1.7300000000e+02 0.0000e+00 -1.0000e+00
       -6  1    1    2    0  503 -1.6088525744e+02 +2.0401129110e+02 -1.4048578655e+03 1.4391175404e+03 1.7300000000e+02 0.0000e+00 -1.0000e+00
       21  1    1    2  504  501 +9.0321817700e+01 -1.3287873405e+02 -4.1992537951e+01 1.6606673947e+02 0.0000000000e+00 0.0000e+00 1.0000e+00
       21  1    1    2  505  504 +1.9240398718e+01 -1.0382758687e+01 +2.2168421431e+01 3.1135727542e+01 0.0000000000e+00 0.0000e+00 1.0000e+00
<mgrwt>
<rscale>  4 0.23346204E+03</rscale>
<asrwt>0</asrwt>
<pdfrwt beam="1">  1       21 0.18255922E-01 0.23346204E+03</pdfrwt>
<pdfrwt beam="2">  1       21 0.34401953E+00 0.23346204E+03</pdfrwt>
<totfact> 0.48972959E+02</totfact>
</mgrwt>
</event>
<event>
 6      1 +2.5196620e+02 1.96427400e+02 7.54677100e-03 1.06301000e-01
       21 -1    0    0  501  502 +0.0000000000e+00 +0.0000000000e+00 +4.6188919956e+02 4.6188919956e+02 0.0000000000e+00 0.0000e+00 -1.0000e+00
       21 -1    0    0  505  503 -0.0000000000e+00 -0.0000000000e+00 -1.3241563621e+02 1.3241563621e+02 0.0000000000e+00 0.0000e+00 -1.0000e+00
        6  1    1    2  501    0 -1.1254696893e+02 +1.7658813091e+01 +7.0978398503e+01 2.1896480756e+02 1.7300000000e+02 0.0000e+00 -1.0000e+00
       -6  1    1    2    0  504 +8.8228279474e+01 -1.8450507061e+01 +2.1535958569e+02 2.9057426186e+02 1.7300000000e+02 0.0000e+00 -1.0000e+00
       21  1    1    2  504  503 +3.8851630394e+01 -1.5444060330e+01 +6.7437130972e+00 4.2349095033e+01 0.0000000000e+00 0.0000e+00 1.0000e+00
       21  1    1    2  505  502 -1.4532940944e+01 +1.6235754300e+01 +3.6391866062e+01 4.2416671318e+01 0.0000000000e+00 0.0000e+00 -1.0000e+00
<mgrwt>
<rscale>  4 0.19642741E+03</rscale>
<asrwt>0</asrwt>
<pdfrwt beam="1">  1       21 0.71059876E-01 0.19642741E+03</pdfrwt>
<pdfrwt beam="2">  1       21 0.20371637E-01 0.19642741E+03</pdfrwt>
<totfact> 0.39897317E+04</totfact>
</mgrwt>
</event>
<event>
 6      1 +2.5196620e+02 2.63452100e+02 7.54677100e-03 1.07326700e-01
       21 -1    0    0  503  502 +0.0000000000e+00 +0.0000000000e+00 +1.7740728538e+02 1.7740728538e+02 0.0000000000e+00 0.0000e+00 1.0000e+00
       21 -1    0    0  501  503 -0.0000000000e+00 -0.0000000000e+00 -9.2811116890e+02 9.2811116890e+02 0.0000000000e+00 0.0000e+00 1.0000e+00
        6  1    1    2  501    0 -1.1213141898e+02 +1.8894750500e+02 -2.2386962015e+02 3.5821951593e+02 1.7300000000e+02 0.0000e+00 -1.0000e+00
       -6  1    1    2    0  505 -7.2568362147e+01 -2.0612867976e+02 -3.0136473122e+02 4.1049348476e+02 1.7300000000e+02 0.0000e+00 -1.0000e+00
       21  1    1    2  504  502 -2.4409485160e+01 -2.6913785822e+01 -2.8610605186e+01 4.6246530271e+01 0.0000000000e+00 0.0000e+00 -1.0000e+00
       21  1    1    2  505  504 +2.0910926629e+02 +4.4094960573e+01 -1.9685892696e+02 2.9055892332e+02 0.0000000000e+00 0.0000e+00 1.0000e+00
<mgrwt>
<rscale>  4 0.26345210E+03</rscale>
<asrwt>0</asrwt>
<pdfrwt beam="1">  1       21 0.27293429E-01 0.26345210E+03</pdfrwt>
<pdfrwt beam="2">  1       21 0.14278633E+00 0.26345210E+03</pdfrwt>
<totfact> 0.41279506E+03</totfact>
</mgrwt>
</event>
<event>
 6      1 +2.5196620e+02 2.08379500e+02 7.54677100e-03 1.16321900e-01
       21 -1    0    0  505  502 +0.0000000000e+00 +0.0000000000e+00 +3.1038891546e+02 3.1038891546e+02 0.0000000000e+00 0.0000e+00 1.0000e+00
       21 -1    0    0  504  503 -0.0000000000e+00 -0.0000000000e+00 -1.2237812781e+03 1.2237812781e+03 0.0000000000e+00 0.0000e+00 -1.0000e+00
        6  1    1    2  501    0 +9.2501302067e+01 -5.4177310522e+01 -1.9846595780e+02 2.8426995667e+02 1.7300000000e+02 0.0000e+00 -1.0000e+00
       -6  1    1    2    0  502 -8.0459154855e+01 +8.6815359643e+01 +2.2574381755e+02 3.0805819813e+02 1.7300000000e+02 0.0000e+00 1.0000e+00
       21  1    1    2  504  501 +9.6409919752e+00 -1.8721661787e+01 -4.6008826472e+02 4.6056993028e+02 0.0000000000e+00 0.0000e+00 -1.0000e+00
       21  1    1    2  505  503 -2.1683139187e+01 -1.3916387333e+01 -4.8058195764e+02 4.8127210845e+02 0.0000000000e+00 0.0000e+00 -1.0000e+00
<mgrwt>
<rscale>  4 0.20837950E+03</rscale>
<asrwt>0</asrwt>
<pdfrwt beam="1">  1       21 0.47752141E-01 0.20837950E+03</pdfrwt>
<pdfrwt beam="2">  1       21 0.18827404E+00 0.20837950E+03</pdfrwt>
<totfact> 0.65948570E+02</totfact>
</mgrwt>
</event>
<event>
 6      1 +2.5196620e+02 2.26124900e+02 7.54677100e-03 1.06301000e-01
       21 -1    0    0  501  502 +0.0000000000e+00 +0.0000000000e+00 +1.7992702273e+02 1.7992702273e+02 0.0000000000e+00 0.0000e+00 1.0000e+00
       21 -1    0    0  505  503 -0.0000000000e+00 -0.0000000000e+00 -1.3413279220e+03 1.3413279220e+03 0.0000000000e+00 0.0000e+00 -1.0000e+00
        6  1    1    2  501    0 -1.2801508315e+02 -9.8676826134e+01 -1.3879025369e+02 2.7443890404e+02 1.7300000000e+02 0.0000e+00 1.0000e+00
       -6  1    1    2    0  504 +1.4430998686e+02 +5.3936144653e+01 -5.8282906751e+02 6.2717876394e+02 1.7300000000e+02 0.0000e+00 -1.0000e+00
       21  1    1    2  504  503 -6.1235825424e+01 +6.0579187222e+01 -5.1959245531e+02 5.2668395063e+02 0.0000000000e+00 0.0000e+00 -1.0000e+00
       21  1    1    2  505  502 +4.4940921717e+01 -1.5838505741e+01 +7.9810877238e+01 9.2953326108e+01 0.0000000000e+00 0.0000e+00 1.0000e+00
<mgrwt>
<rscale>  4 0.22612487E+03</rscale>
<asrwt>0</asrwt>
<pdfrwt beam="1">  1       21 0.27681081E-01 0.22612487E+03</pdfrwt>
<pdfrwt beam="2">  1       21 0.20635814E+00 0.22612487E+03</pdfrwt>
<totfact> 0.14722099E+03</totfact>
</mgrwt>
</event>
<event>
 6      1 +2.5196620e+02 2.49358900e+02 7.54677100e-03 9.49153200e-02
       21 -1    0    0  503  502 +0.0000000000e+00 +0.0000000000e+00 +7.8146627161e+02 7.8146627161e+02 0.0000000000e+00 0.0000e+00 1.0000e+00
       21 -1    0    0  504  503 -0.0000000000e+00 -0.0000000000e+00 -3.0084830893e+02 3.0084830893e+02 0.0000000000e+00 0.0000e+00 -1.0000e+00
        6  1    1    2  501    0 +1.4646047311e+02 +8.0172656774e+01 -1.0406852106e+02 2.6198775192e+02 1.7300000000e+02 0.0000e+00 -1.0000e+00
       -6  1    1    2    0  505 -9.3099551963e+01 -1.2527036079e+02 +3.8004722696e+02 4.4578591789e+02 1.7300000000e+02 0.0000e+00 1.0000e+00
       21  1    1    2  504  501 +1.8937719442e+01 +1.8438545988e+01 -7.7596699700e+01 8.1974782709e+01 0.0000000000e+00 0.0000e+00 -1.0000e+00
       21  1    1    2  505  502 -7.2298640592e+01 +2.6659158029e+01 +2.8223595648e+02 2.9256612803e+02 0.0000000000e+00 0.0000e+00 1.0000e+00
<mgrwt>
<rscale>  4 0.24935889E+03</rscale>
<asrwt>0</asrwt>
<pdfrwt beam="1">  1       21 0.12022558E+00 0.24935889E+03</pdfrwt>
<pdfrwt beam="2">  1       21 0.46284356E-01 0.24935889E+03</pdfrwt>
<totfact> 0.22443644E+03</totfact>
</mgrwt>
</event>
<event>
 6      1 +2.5196620e+02 2.05965600e+02 7.54677100e-03 9.49153200e-02
       21 -1    0    0  505  502 +0.0000000000e+00 +0.0000000000e+00 +3.4245056688e+02 3.4245056688e+02 0.0000000000e+00 0.0000e+00 1.0000e+00
       21 -1    0    0  501  503 -0.0000000000e+00 -0.0000000000e+00 -1.7993230132e+02 1.7993230132e+02 0.0000000000e+00 0.0000e+00 1.0000e+00
        6  1    1    2  501    0 -8.8517723310e+01 -1.0242764938e+02 +6.9383570989e+01 2.3036903139e+02 1.7300000000e+02 0.0000e+00 1.0000e+00
       -6  1    1    2    0  502 +4.2462982104e+01 +8.4974623163e+01 +1.0402830400e+02 2.2310239681e+02 1.7300000000e+02 0.0000e+00 1.0000e+00
       21  1    1    2  504  503 +2.8211428689e+01 +2.7536800457e+01 -2.2465619936e+01 4.5374708453e+01 0.0000000000e+00 0.0000e+00 1.0000e+00
       21  1    1    2  505  504 +1.7843312517e+01 -1.0083774236e+01 +1.1572010517e+01 2.3536731545e+01 0.0000000000e+00 0.0000e+00 1.0000e+00
<mgrwt>
<rscale>  4 0.20596562E+03</rscale>
<asrwt>0</asrwt>
<pdfrwt beam="1">  1       21 0.52684702E-01 0.20596562E+03</pdfrwt>
<pdfrwt beam="2">  1       21 0.27681893E-01 0.20596562E+03</pdfrwt>
<totfact> 0.42252353E+04</totfact>
</mgrwt>
</event>
<event>
 6      1 +2.5196620e+02 2.08616200e+02 7.54677100e-03 1.16128000e-01
       21 -1    0    0  501  502 +0.0000000000e+00 +0.0000000000e+00 +5.2687375224e+02 5.2687375224e+02 0.0000000000e+00 0.0000e+00 -1.0000e+00
       21 -1    0    0  502  503 -0.0000000000e+00 -0.0000000000e+00 -1.2173383050e+02 1.2173383050e+02 0.0000000000e+00 0.0000e+00 -1.0000e+00
        6  1    1    2  501    0 -6.2157006537e+01 -9.0517134833e+01 +1.8961769920e+02 2.7917864712e+02 1.7300000000e+02 0.0000e+00 -1.0000e+00
       -6  1    1    2    0  504 +1.2389683304e+02 +5.2770047624e+01 +1.8394901844e+02 2.8618410953e+02 1.7300000000e+02 0.0000e+00 -1.0000e+00
       21  1    1    2  504  505 -2.8254424893e+01 +3.0214347734e+01 +2.4891055089e+01 4.8278193405e+01 0.0000000000e+00 0.0000e+00 -1.0000e+00
       21  1    1    2  505  503 -3.3485401610e+01 +7.5327394742e+00 +6.6821490082e+00 3.4966632671e+01 0.0000000000e+00 0.0000e+00 -1.0000e+00
<mgrwt>
<rscale>  4 0.20861615E+03</rscale>
<asrwt>0</asrwt>
<pdfrwt beam="1">  1       21 0.81057499E-01 0.20861615E+03</pdfrwt>
<pdfrwt beam="2">  1       21 0.18728282E-01 0.20861615E+03</pdfrwt>
<totfact> 0.34529664E+04</totfact>
</mgrwt>
</event>
<event>
 6      1 +2.5196620e+02 3.10817300e+02 7.54677100e-03 1.07655700e-01
       21 -1    0    0  501  502 +0.0000000000e+00 +0.0000000000e+00 +9.5763998215e+01 9.5763998215e+01 0.0000000000e+00 0.0000e+00 -1.0000e+00
       21 -1    0    0  502  503 -0.0000000000e+00 -0.0000000000e+00 -2.1884353475e+03 2.1884353475e+03 0.0000000000e+00 0.0000e+00 -1.0000e+00
        6  1    1    2  501    0 +1.6590492712e+02 +2.1635495561e+02 -2.7900099907e+02 4.2673700231e+02 1.7300000000e+02 0.0000e+00 -1.0000e+00
       -6  1    1    2    0  505 -1.0325948285e+02 -1.9303968007e+02 -9.9809741797e+02 1.0363659077e+03 1.7300000000e+02 0.0000e+00 -1.0000e+00
       21  1    1    2  504  503 -2.2205071247e+01 +4.5134022099e+00 -5.8100803179e+02 5.8144971321e+02 0.0000000000e+00 0.0000e+00 -1.0000e+00
       21  1    1    2  505  504 -4.0440373017e+01 -2.7828677753e+01 -2.3456490042e+02 2.3964672245e+02 0.0000000000e+00 0.0000e+00 1.0000e+00
<mgrwt>
<rscale>  4 0.31081732E+03</rscale>
<asrwt>0</asrwt>
<pdfrwt beam="1">  1       21 0.14732923E-01 0.31081732E+03</pdfrwt>
<pdfrwt beam="2">  1       21 0.33668236E+00 0.31081732E+03</pdfrwt>
<totfact> 0.74243375E+02</totfact>
</mgrwt>
</event>
<event>
 6      1 +2.5196620e+02 2.38061400e+02 7.54677100e-03 1.09079000e-01
       21 -1    0    0  505  502 +0.0000000000e+00 +0.0000000000e+00 +6.2221358466e+02 6.2221358466e+02 0.0000000000e+00 0.0000e+00 1.0000e+00
       21 -1    0    0  502  503 -0.0000000000e+00 -0.0000000000e+00 -4.0185471817e+02 4.0185471817e+02 0.0000000000e+00 0.0000e+00 1.0000e+00
        6  1    1    2  501    0 -1.3889431053e+02 -2.6115439348e+01 +3.8970070166e+01 2.2676267779e+02 1.7300000000e+02 0.0000e+00 1.0000e+00
       -6  1    1    2    0  504 +1.3987795742e+02 +1.1190584665e+02 -1.9860476117e+02 3.1853039517e+02 1.7300000000e+02 0.0000e+00 1.0000e+00
       21  1    1    2  504  503 -7.1057049991e-01 -1.1629162554e+02 +2.0617796617e+01 1.1810732669e+02 0.0000000000e+00 0.0000e+00 1.0000e+00
       21  1    1    2  505  501 -2.7307639609e-01 +3.0501218237e+01 +3.5937576087e+02 3.6066790318e+02 0.0000000000e+00 0.0000e+00 1.0000e+00
<mgrwt>
<rscale>  4 0.23806135E+03</rscale>
<asrwt>0</asrwt>
<pdfrwt beam="1">  1       21 0.95725167E-01 0.23806135E+03</pdfrwt>
<pdfrwt beam="2">  1       21 0.61823803E-01 0.23806135E+03</pdfrwt>
<totfact> 0.21289340E+03</totfact>
</mgrwt>
</event>
<event>
 6      1 +2.5196620e+02 1.93038100e+02 7.54677100e-03 1.09711200e-01
       21 -1    0    0  501  502 +0.0000000000e+00 +0.0000000000e+00 +6.8677443721e+02 6.8677443721e+02 0.0000000000e+00 0.0000e+00 1.0000e+00
       21 -1    0    0  505  503 -0.0000000000e+00 -0.0000000000e+00 -2.5943149453e+02 2.5943149453e+02 0.0000000000e+00 0.0000e+00 1.0000e+00
        6  1    1    2  501    0 +6.9265983955e+01 +7.5413369525e+00 +5.0477539533e+02 5.3812809630e+02 1.7300000000e+02 0.0000e+00 1.0000e+00
       -6  1    1    2    0  503 -1.3821619848e+01 +4.8823886891e+01 -1.3474081186e+02 2.2507531070e+02 1.7300000000e+02 0.0000e+00 -1.0000e+00
       21  1    1    2  504  502 +2.6629726916e+01 -2.6850656853e+01 +8.3725695386e+01 9.1869974404e+01 0.0000000000e+00 0.0000e+00 1.0000e+00
       21  1    1    2  505  504 -8.2074091024e+01 -2.9514566990e+01 -2.6417336174e+01 9.1132550346e+01 0.0000000000e+00 0.0000e+00 1.0000e+00
<mgrwt>
<rscale>  4 0.19303811E+03</rscale>
<asrwt>0</asrwt>
<pdfrwt beam="1">  1       21 0.10565760E+00 0.19303811E+03</pdfrwt>
<pdfrwt beam="2">  1       21 0.39912538E-01 0.19303811E+03</pdfrwt>
<totfact> 0.43534866E+03</totfact>
</mgrwt>
</event>
<event>
 6      1 +2.5196620e+02 2.01019300e+02 7.54677100e-03 9.49153200e-02
       21 -1    0    0  505  502 +0.0000000000e+00 +0.0000000000e+00 +1.7067734171e+02 1.7067734171e+02 0.0000000000e+00 0.0000e+00 1.0000e+00
       21 -1    0    0  501  503 -0.0000000000e+00 -0.0000000000e+00 -1.4655784615e+03 1.4655784615e+03 0.0000000000e+00 0.0000e+00 1.0000e+00
        6  1    1    2  501    0 -7.3672799383e+01 +3.2737122292e+01 -3.2196801740e+02 3.7428839786e+02 1.7300000000e+02 0.0000e+00 1.0000e+00
       -6  1    1    2    0  502 +8.5630004636e+01 -4.4062178863e+01 +3.5498509242e+01 2.0115446169e+02 1.7300000000e+02 0.0000e+00 1.0000e+00
       21  1    1    2  504  503 -3.2542812556e+01 +3.1152030323e+00 -1.0296275444e+03 1.0301464068e+03 0.0000000000e+00 0.0000e+00 1.0000e+00
       21  1    1    2  505  504 +2.0585607304e+01 +8.2098535389e+00 +2.1195932745e+01 3.0666536944e+01 0.0000000000e+00 0.0000e+00 -1.0000e+00
<mgrwt>
<rscale>  4 0.20101935E+03</rscale>
<asrwt>0</asrwt>
<pdfrwt beam="1">  1       21 0.26258052E-01 0.20101935E+03</pdfrwt>
<pdfrwt beam="2">  1       21 0.22547361E+00 0.20101935E+03</pdfrwt>
<totfact> 0.12722104E+03</totfact>
</mgrwt>
</event>
<event>
 6      1 +2.5196620e+02 1.76078600e+02 7.54677100e-03 1.06301000e-01
       21 -1    0    0  501  502 +0.0000000000e+00 +0.0000000000e+00 +1.0517237273e+03 1.0517237273e+03 0.0000000000e+00 0.0000e+00 -1.0000e+00
       21 -1    0    0  504  503 -0.0000000000e+00 -0.0000000000e+00 -9.1283269235e+01 9.1283269235e+01 0.0000000000e+00 0.0000e+00 -1.0000e+00
        6  1    1    2  501    0 -2.6582057963e+01 -2.5196078691e+01 +4.4640569075e+02 4.8015465105e+02 1.7300000000e+02 0.0000e+00 -1.0000e+00
       -6  1    1    2    0  503 +2.7288346861e+00 +3.5839756653e+01 +4.7862254403e+02 5.1019650562e+02 1.7300000000e+02 0.0000e+00 1.0000e+00
       21  1    1    2  504  505 +2.0163894255e+01 +1.9142549032e+01 -5.2693206395e+01 5.9578467715e+01 0.0000000000e+00 0.0000e+00 -1.0000e+00
       21  1    1    2  505  502 +3.6893290213e+00 -2.9786226993e+01 +8.8105429640e+01 9.3077372112e+01 0.0000000000e+00 0.0000e+00 1.0000e+00
<mgrwt>
<rscale>  4 0.17607859E+03</rscale>
<asrwt>0</asrwt>
<pdfrwt beam="1">  1       21 0.16180364E+00 0.17607859E+03</pdfrwt>
<pdfrwt beam="2">  1       21 0.14043581E-01 0.17607859E+03</pdfrwt>
<totfact> 0.10937386E+04</totfact>
</mgrwt>
</event>
<event>
 6      1 +2.5196620e+02 1.97610100e+02 7.54677100e-03 1.09711200e-01
       21 -1    0    0  505  502 +0.0000000000e+00 +0.0000000000e+00 +2.0016961438e+02 2.0016961438e+02 0.0000000000e+00 0.0000e+00 -1.0000e+00
       21 -1    0    0  504  503 -0.0000000000e+00 -0.0000000000e+00 -3.6488982902e+02 3.6488982902e+02 0.0000000000e+00 0.0000e+00 -1.0000e+00
        6  1    1    2  501    0 -7.9476512411e+01 -6.3112365653e+01 -1.2455963770e+02 2.3610122843e+02 1.7300000000e+02 0.0000e+00 -1.0000e+00
       -6  1    1    2    0  503 +8.2345127657e+01 +3.8207306365e+01 -1.1192154806e+02 2.2515761419e+02 1.7300000000e+02 0.0000e+00 -1.0000e+00
       21  1    1    2  504  502 +3.1069131004e+01 +9.0860406707e+00 +1.4701389916e+01 3.5552466889e+01 0.0000000000e+00 0.0000e+00 1.0000e+00
       21  1    1    2  505  501 -3.3937746251e+01 +1.5819018618e+01 +5.7059581212e+01 6.8248133884e+01 0.0000000000e+00 0.0000e+00 -1.0000e+00
<mgrwt>
<rscale>  4 0.19761010E+03</rscale>
<asrwt>0</asrwt>
<pdfrwt beam="1">  1       21 0.30795325E-01 0.19761010E+03</pdfrwt>
<pdfrwt beam="2">  1       21 0.56136897E-01 0.19761010E+03</pdfrwt>
<totfact> 0.30161276E+04</totfact>
</mgrwt>
</event>
<event>
 6      1 +2.5196620e+02 1.98009800e+02 7.54677100e-03 1.16128000e-01
       21 -1    0    0  501  502 +0.0000000000e+00 +0.0000000000e+00 +6.9949180880e+02 6.9949180880e+02 0.0000000000e+00 0.0000e+00 -1.0000e+00
       21 -1    0    0  504  503 -0.0000000000e+00 -0.0000000000e+00 -2.5571620320e+02 2.5571620320e+02 0.0000000000e+00 0.0000e+00 -1.0000e+00
        6  1    1    2  501    0 +3.0796588757e+01 +6.4555006060e+01 +3.5635627103e+02 4.0253517932e+02 1.7300000000e+02 0.0000e+00 -1.0000e+00
       -6  1    1    2    0  503 -1.8008615496e+02 -5.6426726414e+01 +2.2702431390e+02 3.4217544881e+02 1.7300000000e+02 0.0000e+00 -1.0000e+00
       21  1    1    2  504  505 +1.2564194107e+02 -4.6431051209e+00 -1.3778282483e+02 1.8652496508e+02 0.0000000000e+00 0.0000e+00 -1.0000e+00
       21  1    1    2  505  502 +2.3647625138e+01 -3.4851745244e+00 -1.8221545102e+00 2.3972418801e+01 0.0000000000e+00 0.0000e+00 -1.0000e+00
<mgrwt>
<rscale>  4 0.19800983E+03</rscale>
<asrwt>0</asrwt>
<pdfrwt beam="1">  1       21 0.10761412E+00 0.19800983E+03</pdfrwt>
<pdfrwt beam="2">  1       21 0.39340954E-01 0.19800983E+03</pdfrwt>
<totfact> 0.42706954E+03</totfact>
</mgrwt>
</event>
<event>
 6      1 +2.5196620e+02 2.10427700e+02 7.54677100e-03 1.14954000e-01
       21 -1    0    0  501  502 +0.0000000000e+00 +0.0000000000e+00 +2.1338116222e+02 2.1338116222e+02 0.0000000000e+00 0.0000e+00 1.0000e+00
       21 -1    0    0  505  503 -0.0000000000e+00 -0.0000000000e+00 -1.1202460630e+03 1.1202460630e+03 0.0000000000e+00 0.0000e+00 -1.0000e+00
        6  1    1    2  501    0 +1.1779921955e+02 +1.1828872685e+00 +1.1907079683e+02 2.4080056065e+02 1.7300000000e+02 0.0000e+00 1.0000e+00
       -6  1    1    2    0  503 -7.8328502526e+01 +8.2785317189e+01 -8.8971468268e+02 9.1351517756e+02 1.7300000000e+02 0.0000e+00 -1.0000e+00
       21  1    1    2  504  502 -1.7200988125e+01 -7.2283448026e+01 -5.0152538492e+01 8.9644006873e+01 0.0000000000e+00 0.0000e+00 1.0000e+00
       21  1    1    2  505  504 -2.2269728900e+01 -1.1684756432e+01 -8.6068476485e+01 8.9667480184e+01 0.0000000000e+00 0.0000e+00 -1.0000e+00
<mgrwt>
<rscale>  4 0.21042771E+03</rscale>
<asrwt>0</asrwt>
<pdfrwt beam="1">  1       21 0.32827870E-01 0.21042771E+03</pdfrwt>
<pdfrwt beam="2">  1       21 0.17234555E+00 0.21042771E+03</pdfrwt>
<totfact> 0.18035940E+03</totfact>
</mgrwt>
</event>
<event>
 6      1 +2.5196620e+02 2.35918100e+02 7.54677100e-03 1.16321900e-01
       21 -1    0    0  504  502 +0.0000000000e+00 +0.0000000000e+00 +5.8985837748e+02 5.8985837748e+02 0.0000000000e+00 0.0000e+00 1.0000e+00
       21 -1    0    0  505  503 -0.0000000000e+00 -0.0000000000e+00 -4.1069582123e+02 4.1069582123e+02 0.0000000000e+00 0.0000e+00 1.0000e+00
        6  1    1    2  501    0 -9.1984865213e+01 +1.4272827529e+02 +3.4759891036e+02 4.2377656669e+02 1.7300000000e+02 0.0000e+00 1.0000e+00
       -6  1    1    2    0  502 +1.0683396071e+02 -1.0103110755e+02 +1.3081633684e+02 2.6203567284e+02 1.7300000000e+02 0.0000e+00 1.0000e+00
       21  1    1    2  504  503 -3.7210526648e+01 -3.7439004753e+01 -2.7998983971e+02 2.8492211692e+02 0.0000000000e+00 0.0000e+00 1.0000e+00
       21  1    1    2  505  501 +2.2361431148e+01 -4.2581629895e+00 -1.9262851232e+01 2.9819842264e+01 0.0000000000e+00 0.0000e+00 -1.0000e+00
<mgrwt>
<rscale>  4 0.23591814E+03</rscale>
<asrwt>0</asrwt>
<pdfrwt beam="1">  1       21 0.90747443E-01 0.23591814E+03</pdfrwt>
<pdfrwt beam="2">  1       21 0.63183972E-01 0.23591814E+03</pdfrwt>
<totfact> 0.23051828E+03</totfact>
</mgrwt>
</event>
<event>
 6      1 +2.5196620e+02 2.78056600e+02 7.54677100e-03 1.16128000e-01
       21 -1    0    0  501  502 +0.0000000000e+00 +0.0000000000e+00 +2.6582552774e+02 2.6582552774e+02 0.0000000000e+00 0.0000e+00 1.0000e+00
       21 -1    0    0  505  503 -0.0000000000e+00 -0.0000000000e+00 -1.2571465645e+03 1.2571465645e+03 0.0000000000e+00 0.0000e+00 -1.0000e+00
        6  1    1    2  501    0 +3.2477736634e+00 +1.5535728671e+02 -5.0413136626e+02 5.5517913236e+02 1.7300000000e+02 0.0000e+00 -1.0000e+00
       -6  1    1    2    0  503 +1.3962334082e+02 -1.8720319739e+02 +1.4014478804e+02 3.2265969075e+02 1.7300000000e+02 0.0000e+00 1.0000e+00
       21  1    1    2  504  502 -3.7207964923e+01 +2.4056488614e+01 -2.0188501746e+02 2.0668988261e+02 0.0000000000e+00 0.0000e+00 -1.0000e+00
       21  1    1    2  505  504 -1.0566314956e+02 +7.7894220718e+00 -4.2544944112e+02 4.3844338657e+02 0.0000000000e+00 0.0000e+00 1.0000e+00
<mgrwt>
<rscale>  4 0.27805658E+03</rscale>
<asrwt>0</asrwt>
<pdfrwt beam="1">  1       21 0.40896235E-01 0.27805658E+03</pdfrwt>
<pdfrwt beam="2">  1       21 0.19340716E+00 0.27805658E+03</pdfrwt>
<totfact> 0.78618878E+02</totfact>
</mgrwt>
</event>
<event>
 6      1 +2.5196620e+02 1.73427600e+02 7.54677100e-03 9.49153200e-02
       21 -1    0    0  505  502 +0.0000000000e+00 +0.0000000000e+00 +1.8223674542e+02 1.8223674542e+02 0.0000000000e+00 0.0000e+00 1.0000e+00
       21 -1    0    0  501  503 -0.0000000000e+00 -0.0000000000e+00 -2.6793673776e+02 2.6793673776e+02 0.0000000000e+00 0.0000e+00 1.0000e+00
        6  1    1    2  501    0 +1.6943439713e+00 -1.5647518763e+01 -1.1700031379e+02 2.0944161256e+02 1.7300000000e+02 0.0000e+00 -1.0000e+00
       -6  1    1    2    0  502 +1.1521576617e+01 +1.6454961289e+01 +4.8328474109e+01 1.8074333705e+02 1.7300000000e+02 0.0000e+00 -1.0000e+00
       21  1    1    2  504  503 -1.9898038680e+01 +2.3439218485e+01 -1.6362813305e+01 3.4829162576e+01 0.0000000000e+00 0.0000e+00 1.0000e+00
       21  1    1    2  505  504 +6.6821180916e+00 -2.4246661011e+01 -6.6533934972e-01 2.5159370994e+01 0.0000000000e+00 0.0000e+00 1.0000e+00
<mgrwt>
<rscale>  4 0.17342759E+03</rscale>
<asrwt>0</asrwt>
<pdfrwt beam="1">  1       21 0.28036422E-01 0.17342759E+03</pdfrwt>
<pdfrwt beam="2">  1       21 0.41221037E-01 0.17342759E+03</pdfrwt>
<totfact> 0.69453095E+04</totfact>
</mgrwt>
</event>
<event>
 6      1 +2.5196620e+02 2.12646200e+02 7.54677100e-03 9.49153200e-02
       21 -1    0    0  504  502 +0.0000000000e+00 +0.0000000000e+00 +8.8237838252e+01 8.8237838252e+01 0.0000000000e+00 0.0000e+00 1.0000e+00
       21 -1    0    0  501  503 -0.0000000000e+00 -0.0000000000e+00 -1.7911410309e+03 1.7911410309e+03 0.0000000000e+00 0.0000e+00 1.0000e+00
        6  1    1    2  501    0 +1.3868458715e+02 -1.0196565809e+02 -4.2447780975e+02 4.8963335376e+02 1.7300000000e+02 0.0000e+00 1.0000e+00
       -6  1    1    2    0  505 -7.0294612140e+01 +6.9856208107e+01 -8.1665911652e+02 8.4064400010e+02 1.7300000000e+02 0.0000e+00 1.0000e+00
       21  1    1    2  504  503 -1.9659131583e+01 -5.3458338740e+00 -4.8348562915e+02 4.8391467532e+02 0.0000000000e+00 0.0000e+00 -1.0000e+00
       21  1    1    2  505  502 -4.8730843426e+01 +3.7455283858e+01 +2.1719362755e+01 6.5186839994e+01 0.0000000000e+00 0.0000e+00 1.0000e+00
<mgrwt>
<rscale>  4 0.21264618E+03</rscale>
<asrwt>0</asrwt>
<pdfrwt beam="1">  1       21 0.13575052E-01 0.21264618E+03</pdfrwt>
<pdfrwt beam="2">  1       21 0.27556015E+00 0.21264618E+03</pdfrwt>
<totfact> 0.21687676E+03</totfact>
</mgrwt>
</event>
<event>
 6      1 +2.5196620e+02 1.88920700e+02 7.54677100e-03 1.09711200e-01
       21 -1    0    0  504  502 +0.0000000000e+00 +0.0000000000e+00 +1.3111789828e+03 1.3111789828e+03 0.0000000000e+00 0.0000e+00 -1.0000e+00
       21 -1    0    0  505  503 -0.0000000000e+00 -0.0000000000e+00 -7.4563978660e+02 7.4563978660e+02 0.0000000000e+00 0.0000e+00 -1.0000e+00
        6  1    1    2  501    0 -4.5065207735e+01 +1.0380016798e+02 -1.3563746033e+02 2.4724859649e+02 1.7300000000e+02 0.0000e+00 1.0000e+00
       -6  1    1    2    0  503 +3.1421164027e+01 -5.7575689882e+01 -5.3356491779e+02 5.6473247747e+02 1.7300000000e+02 0.0000e+00 -1.0000e+00
       21  1    1    2  504  501 +7.6411648049e+01 -2.4664242554e+01 +9.0038273263e+02 9.0395582306e+02 0.0000000000e+00 0.0000e+00 -1.0000e+00
       21  1    1    2  505  502 -6.2767604341e+01 -2.1560235547e+01 +3.3435884171e+02 3.4088187241e+02 0.0000000000e+00 0.0000e+00 1.0000e+00
<mgrwt>
<rscale>  4 0.18892072E+03</rscale>
<asrwt>0</asrwt>
<pdfrwt beam="1">  1       21 0.20171984E+00 0.18892072E+03</pdfrwt>
<pdfrwt beam="2">  1       21 0.11471381E+00 0.18892072E+03</pdfrwt>
<totfact> 0.77653172E+01</totfact>
</mgrwt>
</event>
<event>
 6      1 +2.5196620e+02 2.44199100e+02 7.54677100e-03 1.12691600e-01
       21 -1    0    0  505  502 +0.0000000000e+00 +0.0000000000e+00 +2.3400494994e+02 2.3400494994e+02 0.0000000000e+00 0.0000e+00 -1.0000e+00
       21 -1    0    0  502  503 -0.0000000000e+00 -0.0000000000e+00 -2.1122630079e+03 2.1122630079e+03 0.0000000000e+00 0.0000e+00 -1.0000e+00
        6  1    1    2  501    0 -1.1368083979e+02 +1.4700689142e+02 -3.5694656634e+02 4.3803448572e+02 1.7300000000e+02 0.0000e+00 -1.0000e+00
       -6  1    1    2    0  503 +1.2950447431e+02 -1.1038000477e+02 -1.6964619848e+03 1.7137290976e+03 1.7300000000e+02 0.0000e+00 -1.0000e+00
       21  1    1    2  504  501 -3.7607609476e+01 -4.6178682974e+01 +1.3911114845e+02 1.5132321261e+02 0.0000000000e+00 0.0000e+00 -1.0000e+00
       21  1    1    2  505  504 +2.1783974956e+01 +9.5517963226e+00 +3.6039344679e+01 4.3181161897e+01 0.0000000000e+00 0.0000e+00 -1.0000e+00
<mgrwt>
<rscale>  4 0.24419915E+03</rscale>
<asrwt>0</asrwt>
<pdfrwt beam="1">  1       21 0.36000762E-01 0.24419915E+03</pdfrwt>
<pdfrwt beam="2">  1       21 0.32496353E+00 0.24419915E+03</pdfrwt>
<totfact> 0.16916482E+02</totfact>
</mgrwt>
</event>
<event>
 6      1 +2.5196620e+02 2.87845100e+02 7.54677100e-03 1.02776600e-01
       21 -1    0    0  505  502 +0.0000000000e+00 +0.0000000000e+00 +4.5522654574e+02 4.5522654574e+02 0.0000000000e+00 0.0000e+00 -1.0000e+00
       21 -1    0    0  501  503 -0.0000000000e+00 -0.0000000000e+00 -5.5083499924e+02 5.5083499924e+02 0.0000000000e+00 0.0000e+00 1.0000e+00
        6  1    1    2  501    0 -1.9368171238e+01 -1.4209398253e+02 -1.7959895749e+02 2.8766406008e+02 1.7300000000e+02 0.0000e+00 1.0000e+00
       -6  1    1    2    0  502 -2.2622446646e+02 +2.8429023409e+01 +2.6361480842e+02 3.8911114841e+02 1.7300000000e+02 0.0000e+00 -1.0000e+00
       21  1    1    2  504  503 +2.0389393625e+02 +1.1047554128e+02 -1.6640473751e+02 2.8542620609e+02 0.0000000000e+00 0.0000e+00 1.0000e+00
       21  1    1    2  505  504 +4.1698701452e+01 +3.1894178415e+00 -1.3219566914e+01 4.3860130396e+01 0.0000000000e+00 0.0000e+00 1.0000e+00
<mgrwt>
<rscale>  4 0.27056708E+03</rscale>
<asrwt>0</asrwt>
<pdfrwt beam="1">  1       21 0.70034853E-01 0.28784506E+03</pdfrwt>
<pdfrwt beam="2">  1       21 0.84743846E-01 0.28784506E+03</pdfrwt>
<totfact> 0.20804243E+03</totfact>
</mgrwt>
</event>
<event>
 6      1 +2.5196620e+02 2.94294400e+02 7.54677100e-03 9.28652600e-02
       21 -1    0    0  501  502 +0.0000000000e+00 +0.0000000000e+00 +7.7001420862e+02 7.7001420862e+02 0.0000000000e+00 0.0000e+00 -1.0000e+00
       21 -1    0    0  505  503 -0.0000000000e+00 -0.0000000000e+00 -4.5758892531e+02 4.5758892531e+02 0.0000000000e+00 0.0000e+00 1.0000e+00
        6  1    1    2  501    0 +2.3483172503e+02 -3.9314653181e+01 +6.3661793436e+02 7.0135795096e+02 1.7300000000e+02 0.0000e+00 -1.0000e+00
       -6  1    1    2    0  504 -2.3326836179e+02 +4.7363842155e+01 -1.3978288440e+02 3.2576942295e+02 1.7300000000e+02 0.0000e+00 1.0000e+00
       21  1    1    2  504  503 -2.3538758152e+01 -3.5967807289e+01 -9.5415708297e+01 1.0465139123e+02 0.0000000000e+00 0.0000e+00 1.0000e+00
       21  1    1    2  505  502 +2.1975394917e+01 +2.7918618315e+01 -8.8994058358e+01 9.5824368787e+01 0.0000000000e+00 0.0000e+00 1.0000e+00
<mgrwt>
<rscale>  4 0.29429443E+03</rscale>
<asrwt>0</asrwt>
<pdfrwt beam="1">  1       21 0.11846372E+00 0.29429443E+03</pdfrwt>
<pdfrwt beam="2">  1       21 0.70398296E-01 0.29429443E+03</pdfrwt>
<totfact> 0.91658949E+02</totfact>
</mgrwt>
</event>
<event>
 6      1 +2.5196620e+02 2.60525000e+02 7.54677100e-03 1.02776600e-01
       21 -1    0    0  503  502 +0.0000000000e+00 +0.0000000000e+00 +1.0212178856e+03 1.0212178856e+03 0.0000000000e+00 0.0000e+00 -1.0000e+00
       21 -1    0    0  505  503 -0.0000000000e+00 -0.0000000000e+00 -2.8743772000e+02 2.8743772000e+02 0.0000000000e+00 0.0000e+00 -1.0000e+00
        6  1    1    2  501    0 +8.0539912488e+01 +1.2605836405e+01 +2.0778305894e+02 2.8239756408e+02 1.7300000000e+02 0.0000e+00 -1.0000e+00
       -6  1    1    2    0  502 +1.1140025124e+02 +6.6562453552e+01 +6.9769241269e+02 7.3044115364e+02 1.7300000000e+02 0.0000e+00 1.0000e+00
       21  1    1    2  504  501 -1.4966000768e+02 -1.1087454679e+02 -1.1806568680e+02 2.2052389762e+02 0.0000000000e+00 0.0000e+00 -1.0000e+00
       21  1    1    2  505  504 -4.2280156054e+01 +3.1706256829e+01 -5.3629619254e+01 7.5292990241e+01 0.0000000000e+00 0.0000e+00 -1.0000e+00
<mgrwt>
<rscale>  4 0.24037540E+03</rscale>
<asrwt>0</asrwt>
<pdfrwt beam="1">  1       21 0.15711044E+00 0.26052504E+03</pdfrwt>
<pdfrwt beam="2">  1       21 0.44221188E-01 0.26052504E+03</pdfrwt>
<totfact> 0.12215618E+03</totfact>
</mgrwt>
</event>
<event>
 6      1 +2.5196620e+02 2.50732900e+02 7.54677100e-03 1.07655700e-01
       21 -1    0    0  501  502 +0.0000000000e+00 +0.0000000000e+00 +1.0203162199e+02 1.0203162199e+02 0.0000000000e+00 0.0000e+00 1.0000e+00
       21 -1    0    0  504  503 -0.0000000000e+00 -0.0000000000e+00 -7.9946389784e+02 7.9946389784e+02 0.0000000000e+00 0.0000e+00 1.0000e+00
        6  1    1    2  501    0 -1.7805931339e+02 +5.2911800079e+00 -2.2958950131e+02 3.3819144694e+02 1.7300000000e+02 0.0000e+00 1.0000e+00
       -6  1    1    2    0  505 +1.8597245665e+02 +2.4534712151e+01 -3.5818428216e+02 4.3978709248e+02 1.7300000000e+02 0.0000e+00 1.0000e+00
       21  1    1    2  504  502 -2.7438802300e+01 -1.3598878338e+01 -7.0298963170e+01 7.6679603458e+01 0.0000000000e+00 0.0000e+00 1.0000e+00
       21  1    1    2  505  503 +1.9525659044e+01 -1.6227013821e+01 -3.9359529217e+01 4.6837376943e+01 0.0000000000e+00 0.0000e+00 -1.0000e+00
<mgrwt>
<rscale>  4 0.25073292E+03</rscale>
<asrwt>0</asrwt>
<pdfrwt beam="1">  1       21 0.15697172E-01 0.25073292E+03</pdfrwt>
<pdfrwt beam="2">  1       21 0.12299445E+00 0.25073292E+03</pdfrwt>
<totfact> 0.17324688E+04</totfact>
</mgrwt>
</event>
<event>
 6      1 +2.5196620e+02 2.35311000e+02 7.54677100e-03 1.16726300e-01
       21 -1    0    0  504  502 +0.0000000000e+00 +0.0000000000e+00 +1.3498690974e+02 1.3498690974e+02 0.0000000000e+00 0.0000e+00 -1.0000e+00
       21 -1    0    0  505  503 -0.0000000000e+00 -0.0000000000e+00 -1.9104268518e+03 1.9104268518e+03 0.0000000000e+00 0.0000e+00 1.0000e+00
        6  1    1    2  501    0 +4.1594278409e+01 -1.0994318966e+02 -4.0638631540e+02 4.5705188578e+02 1.7300000000e+02 0.0000e+00 1.0000e+00
       -6  1    1    2    0  503 -1.4974024565e+01 +1.7378540843e+02 -3.4454096967e+01 2.4807594481e+02 1.7300000000e+02 0.0000e+00 -1.0000e+00
       21  1    1    2  504  501 -3.0610562288e+01 -2.2619183356e+01 -1.4335204109e+02 1.4831871650e+02 0.0000000000e+00 0.0000e+00 1.0000e+00
       21  1    1    2  505  502 +3.9903084441e+00 -4.1223035416e+01 -1.1912474886e+03 1.1919672145e+03 0.0000000000e+00 0.0000e+00 1.0000e+00
<mgrwt>
<rscale>  4 0.23531096E+03</rscale>
<asrwt>0</asrwt>
<pdfrwt beam="1">  1       21 0.20767217E-01 0.23531096E+03</pdfrwt>
<pdfrwt beam="2">  1       21 0.29391182E+00 0.23531096E+03</pdfrwt>
<totfact> 0.75457978E+02</totfact>
</mgrwt>
</event>
<event>
 6      1 +2.5196620e+02 3.87996600e+02 7.54677100e-03 9.49153200e-02
       21 -1    0    0  503  502 +0.0000000000e+00 +0.0000000000e+00 +8.8175248565e+02 8.8175248565e+02 0.0000000000e+00 0.0000e+00 1.0000e+00
       21 -1    0    0  504  503 -0.0000000000e+00 -0.0000000000e+00 -3.8451801179e+02 3.8451801179e+02 0.0000000000e+00 0.0000e+00 1.0000e+00
        6  1    1    2  501    0 +3.6365119063e+01 +3.5883423830e+02 +3.6180106709e+01 4.0164963910e+02 1.7300000000e+02 0.0000e+00 1.0000e+00
       -6  1    1    2    0  505 -1.4341861370e+01 -3.4492570435e+02 +1.5711832082e+02 4.1688679188e+02 1.7300000000e+02 0.0000e+00 1.0000e+00
       21  1    1    2  504  501 -5.6668058791e+00 -3.7205579760e+01 -6.6390256405e+01 7.6315358871e+01 0.0000000000e+00 0.0000e+00 -1.0000e+00
       21  1    1    2  505  502 -1.6356451814e+01 +2.3297045803e+01 +3.7032630273e+02 3.7141870760e+02 0.0000000000e+00 0.0000e+00 1.0000e+00
<mgrwt>
<rscale>  4 0.38799661E+03</rscale>
<asrwt>0</asrwt>
<pdfrwt beam="1">  1       21 0.13565423E+00 0.38799661E+03</pdfrwt>
<pdfrwt beam="2">  1       21 0.59156617E-01 0.38799661E+03</pdfrwt>
<totfact> 0.90096460E+02</totfact>
</mgrwt>
</event>
<event>
 6      1 +2.5196620e+02 2.21657900e+02 7.54677100e-03 1.06301000e-01
       21 -1    0    0  501  502 +0.0000000000e+00 +0.0000000000e+00 +3.1696349035e+02 3.1696349035e+02 0.0000000000e+00 0.0000e+00 -1.0000e+00
       21 -1    0    0  505  503 -0.0000000000e+00 -0.0000000000e+00 -6.9769860414e+02 6.9769860414e+02 0.0000000000e+00 0.0000e+00 1.0000e+00
        6  1    1    2  501    0 +8.6542415332e+01 +7.4765930620e+01 -1.8481430243e+01 2.0820686179e+02 1.7300000000e+02 0.0000e+00 -1.0000e+00
       -6  1    1    2    0  504 +6.0087746171e+01 -1.3889470851e+02 -3.6511585096e+02 4.3144045002e+02 1.7300000000e+02 0.0000e+00 1.0000e+00
       21  1    1    2  504  503 +1.5870275629e+01 -4.1831908383e+01 -1.3158599474e+02 1.3898434523e+02 0.0000000000e+00 0.0000e+00 1.0000e+00
       21  1    1    2  505  502 -1.6250043713e+02 +1.0596068627e+02 +1.3444816214e+02 2.3603043746e+02 0.0000000000e+00 0.0000e+00 -1.0000e+00
<mgrwt>
<rscale>  4 0.22165785E+03</rscale>
<asrwt>0</asrwt>
<pdfrwt beam="1">  1       21 0.48763614E-01 0.22165785E+03</pdfrwt>
<pdfrwt beam="2">  1       21 0.10733825E+00 0.22165785E+03</pdfrwt>
<totfact> 0.27146517E+03</totfact>
</mgrwt>
</event>
<event>
 6      1 +2.5196620e+02 1.99456700e+02 7.54677100e-03 1.13287100e-01
       21 -1    0    0  504  502 +0.0000000000e+00 +0.0000000000e+00 +3.1437173784e+02 3.1437173784e+02 0.0000000000e+00 0.0000e+00 1.0000e+00
       21 -1    0    0  505  503 -0.0000000000e+00 -0.0000000000e+00 -3.3796546179e+02 3.3796546179e+02 0.0000000000e+00 0.0000e+00 1.0000e+00
        6  1    1    2  501    0 -1.0250100024e+01 -4.5483364523e+01 +4.6516079377e+01 1.8511225416e+02 1.7300000000e+02 0.0000e+00 1.0000e+00
       -6  1    1    2    0  503 -6.9013576250e+01 +1.0701200483e+02 -1.8027031741e+02 2.8042972421e+02 1.7300000000e+02 0.0000e+00 1.0000e+00
       21  1    1    2  504  501 +3.6906263512e+01 +1.2976376692e+01 +9.0889780683e+01 9.8951558205e+01 0.0000000000e+00 0.0000e+00 1.0000e+00
       21  1    1    2  505  502 +4.2357412763e+01 -7.4505017001e+01 +1.9270733394e+01 8.7843663061e+01 0.0000000000e+00 0.0000e+00 1.0000e+00
<mgrwt>
<rscale>  4 0.19945668E+03</rscale>
<asrwt>0</asrwt>
<pdfrwt beam="1">  1       21 0.48364883E-01 0.19945668E+03</pdfrwt>
<pdfrwt beam="2">  1       21 0.51994686E-01 0.19945668E+03</pdfrwt>
<totfact> 0.14274096E+04</totfact>
</mgrwt>
</event>
<event>
 6      1 +2.5196620e+02 1.76992300e+02 7.54677100e-03 9.49153200e-02
       21 -1    0    0  505  502 +0.0000000000e+00 +0.0000000000e+00 +1.1819439862e+03 1.1819439862e+03 0.0000000000e+00 0.0000e+00 -1.0000e+00
       21 -1    0    0  504  503 -0.0000000000e+00 -0.0000000000e+00 -1.6889390281e+02 1.6889390281e+02 0.0000000000e+00 0.0000e+00 -1.0000e+00
        6  1    1    2  501    0 -2.8279413622e+01 +9.3039531503e+00 +3.4391537150e+02 3.8612571985e+02 1.7300000000e+02 0.0000e+00 1.0000e+00
       -6  1    1    2    0  502 +3.0358981497e+01 -2.9494864662e+01 +7.3761166079e+02 7.5880931526e+02 1.7300000000e+02 0.0000e+00 -1.0000e+00
       21  1    1    2  504  501 +1.7695224315e+01 -9.9795457074e+00 -1.3162175844e+02 1.3318032734e+02 0.0000000000e+00 0.0000e+00 -1.0000e+00
       21  1    1    2  505  503 -1.9774792189e+01 +3.0170457219e+01 +6.3144809566e+01 7.2722526565e+01 0.0000000000e+00 0.0000e+00 -1.0000e+00
<mgrwt>
<rscale>  4 0.17699229E+03</rscale>
<asrwt>0</asrwt>
<pdfrwt beam="1">  1       21 0.18183753E+00 0.17699229E+03</pdfrwt>
<pdfrwt beam="2">  1       21 0.25983678E-01 0.17699229E+03</pdfrwt>
<totfact> 0.25272365E+03</totfact>
</mgrwt>
</event>
<event>
 6      1 +2.5196620e+02 3.15013500e+02 7.54677100e-03 1.16726300e-01
       21 -1    0    0  504  502 +0.0000000000e+00 +0.0000000000e+00 +5.5831502991e+02 5.5831502991e+02 0.0000000000e+00 0.0000e+00 1.0000e+00
       21 -1    0    0  502  503 -0.0000000000e+00 -0.0000000000e+00 -4.6251330363e+02 4.6251330363e+02 0.0000000000e+00 0.0000e+00 1.0000e+00
        6  1    1    2  501    0 -9.1956589259e+01 +2.0361885253e+02 +8.7334332338e+01 2.9575824083e+02 1.7300000000e+02 0.0000e+00 1.0000e+00
       -6  1    1    2    0  505 -1.1843637781e+02 -3.2967994863e+02 +3.6410879754e+01 3.9239112667e+02 1.7300000000e+02 0.0000e+00 1.0000e+00
       21  1    1    2  504  501 +1.6745831506e+02 +1.2740104895e+02 +7.3208339432e+01 2.2278414558e+02 0.0000000000e+00 0.0000e+00 1.0000e+00
       21  1    1    2  505  503 +4.2934652011e+01 -1.3399528467e+00 -1.0115182524e+02 1.0989482047e+02 0.0000000000e+00 0.0000e+00 -1.0000e+00
<mgrwt>
<rscale>  4 0.31501350E+03</rscale>
<asrwt>0</asrwt>
<pdfrwt beam="1">  1       21 0.85894620E-01 0.31501350E+03</pdfrwt>
<pdfrwt beam="2">  1       21 0.71155893E-01 0.31501350E+03</pdfrwt>
<totfact> 0.19157652E+03</totfact>
</mgrwt>
</event>
<event>
 6      1 +2.5196620e+02 2.17020500e+02 7.54677100e-03 1.16321900e-01
       21 -1    0    0  503  502 +0.0000000000e+00 +0.0000000000e+00 +1.4800729571e+03 1.4800729571e+03 0.0000000000e+00 0.0000e+00 -1.0000e+00
       21 -1    0    0  505  503 -0.0000000000e+00 -0.0000000000e+00 -2.7300489002e+02 2.7300489002e+02 0.0000000000e+00 0.0000e+00 1.0000e+00
        6  1    1    2  501    0 +8.0804320174e+01 +1.1689828059e+02 +8.9494256872e+02 9.2252140760e+02 1.7300000000e+02 0.0000e+00 -1.0000e+00
       -6  1    1    2    0  502 -1.1753625931e+02 -4.8825959613e+01 +5.3285903901e+02 5.7451414433e+02 1.7300000000e+02 0.0000e+00 1.0000e+00
       21  1    1    2  504  501 +2.6899238178e+01 -4.0513667098e+01 -1.9020165559e+01 5.2217745395e+01 0.0000000000e+00 0.0000e+00 1.0000e+00
       21  1    1    2  505  504 +9.8327009627e+00 -2.7558653883e+01 -2.0171337509e+02 2.0382454980e+02 0.0000000000e+00 0.0000e+00 1.0000e+00
<mgrwt>
<rscale>  4 0.21702053E+03</rscale>
<asrwt>0</asrwt>
<pdfrwt beam="1">  1       21 0.22770353E+00 0.21702053E+03</pdfrwt>
<pdfrwt beam="2">  1       21 0.42000753E-01 0.21702053E+03</pdfrwt>
<totfact> 0.47822972E+02</totfact>
</mgrwt>
</event>
<event>
 6      1 +2.5196620e+02 1.97887600e+02 7.54677100e-03 9.49153200e-02
       21 -1    0    0  503  502 +0.0000000000e+00 +0.0000000000e+00 +6.2870085282e+02 6.2870085282e+02 0.0000000000e+00 0.0000e+00 1.0000e+00
       21 -1    0    0  504  503 -0.0000000000e+00 -0.0000000000e+00 -7.9236814751e+02 7.9236814751e+02 0.0000000000e+00 0.0000e+00 -1.0000e+00
        6  1    1    2  501    0 +6.7179577284e+01 -1.3541248459e+02 +5.1199618958e+01 2.3537212573e+02 1.7300000000e+02 0.0000e+00 1.0000e+00
       -6  1    1    2    0  505 -2.0614362396e+01 +6.2758614075e+01 +2.6266251739e+01 1.8703612367e+02 1.7300000000e+02 0.0000e+00 1.0000e+00
       21  1    1    2  504  501 +9.8135023486e+00 -3.6977066075e+01 -6.0925006710e+02 6.1045004096e+02 0.0000000000e+00 0.0000e+00 -1.0000e+00
       21  1    1    2  505  502 -5.6378717236e+01 +1.0963093659e+02 +3.6811690171e+02 3.8821070997e+02 0.0000000000e+00 0.0000e+00 1.0000e+00
<mgrwt>
<rscale>  4 0.19788763E+03</rscale>
<asrwt>0</asrwt>
<pdfrwt beam="1">  1       21 0.96723208E-01 0.19788763E+03</pdfrwt>
<pdfrwt beam="2">  1       21 0.12190279E+00 0.19788763E+03</pdfrwt>
<totfact> 0.44836798E+02</totfact>
</mgrwt>
</event>
<event>
 6      1 +2.5196620e+02 3.87597100e+02 7.54677100e-03 1.12691600e-01
       21 -1    0    0  504  502 +0.0000000000e+00 +0.0000000000e+00 +1.9804777840e+03 1.9804777840e+03 0.0000000000e+00 0.0000e+00 -1.0000e+00
       21 -1    0    0  501  503 -0.0000000000e+00 -0.0000000000e+00 -1.4445771455e+02 1.4445771455e+02 0.0000000000e+00 0.0000e+00 -1.0000e+00
        6  1    1    2  501    0 -2.6500491609e+02 -2.2784003212e+02 +2.2131120154e+02 4.4838190610e+02 1.7300000000e+02 0.0000e+00 -1.0000e+00
       -6  1    1    2    0  505 +2.7412024236e+02 +1.9752444557e+02 +1.2365616962e+03 1.2935113615e+03 1.7300000000e+02 0.0000e+00 -1.0000e+00
       21  1    1    2  504  503 -2.5768970731e+01 +1.2113183752e+01 +2.9335847098e+02 2.9473710586e+02 0.0000000000e+00 0.0000e+00 -1.0000e+00
       21  1    1    2  505  502 +1.6653644464e+01 +1.8202402795e+01 +8.4788700674e+01 8.8305125013e+01 0.0000000000e+00 0.0000e+00 1.0000e+00
<mgrwt>
<rscale>  4 0.38759707E+03</rscale>
<asrwt>0</asrwt>
<pdfrwt beam="1">  1       21 0.30468887E+00 0.38759707E+03</pdfrwt>
<pdfrwt beam="2">  1       21 0.22224265E-01 0.38759707E+03</pdfrwt>
<totfact> 0.50238106E+02</totfact>
</mgrwt>
</event>
<event>
 6      1 +2.5196620e+02 2.74817700e+02 7.54677100e-03 9.49153200e-02
       21 -1    0    0  505  502 +0.0000000000e+00 +0.0000000000e+00 +3.2142853673e+02 3.2142853673e+02 0.0000000000e+00 0.0000e+00 1.0000e+00
       21 -1    0    0  501  503 -0.0000000000e+00 -0.0000000000e+00 -3.4553366483e+02 3.4553366483e+02 0.0000000000e+00 0.0000e+00 1.0000e+00
        6  1    1    2  501    0 -1.1804116685e+01 +2.0998282544e+02 -1.8372222572e+01 2.7294443155e+02 1.7300000000e+02 0.0000e+00 -1.0000e+00
       -6  1    1    2    0  502 +9.1682741087e+01 -2.0356904853e+02 -6.1468412616e+01 2.8905613344e+02 1.7300000000e+02 0.0000e+00 -1.0000e+00
       21  1    1    2  504  503 -4.0813838052e+01 -1.3069435312e+01 +9.1857924493e+00 4.3828738276e+01 0.0000000000e+00 0.0000e+00 -1.0000e+00
       21  1    1    2  505  504 -3.9064786350e+01 +6.6556583975e+00 +4.6549714638e+01 6.1132898297e+01 0.0000000000e+00 0.0000e+00 1.0000e+00
<mgrwt>
<rscale>  4 0.27481775E+03</rscale>
<asrwt>0</asrwt>
<pdfrwt beam="1">  1       21 0.49450544E-01 0.27481775E+03</pdfrwt>
<pdfrwt beam="2">  1       21 0.53159025E-01 0.27481775E+03</pdfrwt>
<totfact> 0.12472714E+04</totfact>
</mgrwt>
</event>
<event>
 6      1 +2.5196620e+02 1.85055100e+02 7.54677100e-03 1.07655700e-01
       21 -1    0    0  501  502 +0.0000000000e+00 +0.0000000000e+00 +4.8321315366e+02 4.8321315366e+02 0.0000000000e+00 0.0000e+00 1.0000e+00
       21 -1    0    0  502  503 -0.0000000000e+00 -0.0000000000e+00 -4.1499140745e+02 4.1499140745e+02 0.0000000000e+00 0.0000e+00 1.0000e+00
        6  1    1    2  501    0 -4.1101927794e+01 +4.1963852792e+01 +3.7933968229e+02 4.2104385517e+02 1.7300000000e+02 0.0000e+00 1.0000e+00
       -6  1    1    2    0  505 +5.7300808377e+01 -1.3810088768e+02 -1.6677330867e+02 2.8301514854e+02 1.7300000000e+02 0.0000e+00 1.0000e+00
       21  1    1    2  504  503 -2.5192257365e+01 +1.0381420594e+01 -8.5544476476e+01 8.9779068720e+01 0.0000000000e+00 0.0000e+00 -1.0000e+00
       21  1    1    2  505  504 +8.9933767818e+00 +8.5755614297e+01 -5.8800150930e+01 1.0436648868e+02 0.0000000000e+00 0.0000e+00 1.0000e+00
<mgrwt>
<rscale>  4 0.18505510E+03</rscale>
<asrwt>0</asrwt>
<pdfrwt beam="1">  1       21 0.74340485E-01 0.18505510E+03</pdfrwt>
<pdfrwt beam="2">  1       21 0.63844832E-01 0.18505510E+03</pdfrwt>
<totfact> 0.36978443E+03</totfact>
</mgrwt>
</event>
<event>
 6      1 +2.5196620e+02 2.06618000e+02 7.54677100e-03 1.16558800e-01
       21 -1    0    0  505  502 +0.0000000000e+00 +0.0000000000e+00 +7.3342402830e+01 7.3342402830e+01 0.0000000000e+00 0.0000e+00 1.0000e+00
       21 -1    0    0  504  503 -0.0000000000e+00 -0.0000000000e+00 -1.7983404645e+03 1.7983404645e+03 0.0000000000e+00 0.0000e+00 1.0000e+00
        6  1    1    2  501    0 -1.5395781893e+00 +4.7819223973e+01 -8.0378553439e+02 8.2358316749e+02 1.7300000000e+02 0.0000e+00 1.0000e+00
       -6  1    1    2    0  502 -1.1322310609e+02 -1.3359002302e+02 -5.2796609333e+02 5.8253151134e+02 1.7300000000e+02 0.0000e+00 1.0000e+00
       21  1    1    2  504  501 +9.2085144242e+01 +5.9231549064e+01 -4.1175005412e+02 4.2605886596e+02 0.0000000000e+00 0.0000e+00 1.0000e+00
       21  1    1    2  505  503 +2.2677540033e+01 +2.6539249980e+01 +1.8503620139e+01 3.9509322567e+01 0.0000000000e+00 0.0000e+00 1.0000e+00
<mgrwt>
<rscale>  4 0.20661800E+03</rscale>
<asrwt>0</asrwt>
<pdfrwt beam="1">  1       21 0.11283448E-01 0.20661800E+03</pdfrwt>
<pdfrwt beam="2">  1       21 0.27666774E+00 0.20661800E+03</pdfrwt>
<totfact> 0.29989897E+03</totfact>
</mgrwt>
</event>
<event>
 6      1 +2.5196620e+02 1.77488700e+02 7.54677100e-03 9.49153200e-02
       21 -1    0    0  504  502 +0.0000000000e+00 +0.0000000000e+00 +1.2527313123e+03 1.2527313123e+03 0.0000000000e+00 0.0000e+00 -1.0000e+00
       21 -1    0    0  501  503 -0.0000000000e+00 -0.0000000000e+00 -1.0714222141e+02 1.0714222141e+02 0.0000000000e+00 0.0000e+00 -1.0000e+00
        6  1    1    2  501    0 +1.2249208258e+01 +6.2118732773e+01 +1.5913180177e+02 2.4343522835e+02 1.7300000000e+02 0.0000e+00 -1.0000e+00
       -6  1    1    2    0  505 -2.4750976883e+01 -9.1788758030e+00 +2.0352750937e+02 2.6842002475e+02 1.7300000000e+02 0.0000e+00 -1.0000e+00
       21  1    1    2  504  503 -9.5780355115e+00 -2.1121391473e+01 -2.7890817307e+01 3.6273263322e+01 0.0000000000e+00 0.0000e+00 -1.0000e+00
       21  1    1    2  505  502 +2.2079804137e+01 -3.1818465496e+01 +8.1082059704e+02 8.1174501729e+02 0.0000000000e+00 0.0000e+00 -1.0000e+00
<mgrwt>
<rscale>  4 0.17748867E+03</rscale>
<asrwt>0</asrwt>
<pdfrwt beam="1">  1       21 0.19272788E+00 0.17748867E+03</pdfrwt>
<pdfrwt beam="2">  1       21 0.16483420E-01 0.17748867E+03</pdfrwt>
<totfact> 0.50125040E+03</totfact>
</mgrwt>
</event>
<event>
 6      1 +2.5196620e+02 2.89422000e+02 7.54677100e-03 1.16128000e-01
       21 -1    0    0  501  502 +0.0000000000e+00 +0.0000000000e+00 +1.3098189610e+03 1.3098189610e+03 0.0000000000e+00 0.0000e+00 -1.0000e+00
       21 -1    0    0  502  503 -0.0000000000e+00 -0.0000000000e+00 -3.1792090168e+02 3.1792090168e+02 0.0000000000e+00 0.0000e+00 1.0000e+00
        6  1    1    2  501    0 -3.6654756331e+01 -3.3910455895e+01 +8.4150845960e+02 8.6055736460e+02 1.7300000000e+02 0.0000e+00 -1.0000e+00
       -6  1    1    2    0  504 -1.9836884431e+02 +1.5395147184e+00 +3.5670378506e+02 4.4330481474e+02 1.7300000000e+02 0.0000e+00 1.0000e+00
       21  1    1    2  504  505 +8.9158386155e+01 +2.6877081679e+01 -3.6676909983e+01 1.0008392012e+02 0.0000000000e+00 0.0000e+00 1.0000e+00
       21  1    1    2  505  503 +1.4586521449e+02 +5.4938594974e+00 -1.6963727533e+02 2.2379376325e+02 0.0000000000e+00 0.0000e+00 1.0000e+00
<mgrwt>
<rscale>  4 0.25704222E+03</rscale>
<asrwt>0</asrwt>
<pdfrwt beam="1">  1       21 0.20151061E+00 0.28942201E+03</pdfrwt>
<pdfrwt beam="2">  1       21 0.48910909E-01 0.28942201E+03</pdfrwt>
<totfact> 0.47561157E+02</totfact>
</mgrwt>
</event>
<event>
 6      1 +2.5196620e+02 2.14122900e+02 7.54677100e-03 9.49153200e-02
       21 -1    0    0  505  502 +0.0000000000e+00 +0.0000000000e+00 +4.0457682037e+02 4.0457682037e+02 0.0000000000e+00 0.0000e+00 -1.0000e+00
       21 -1    0    0  501  503 -0.0000000000e+00 -0.0000000000e+00 -2.8524323547e+02 2.8524323547e+02 0.0000000000e+00 0.0000e+00 -1.0000e+00
        6  1    1    2  501    0 +5.0054505849e+01 +1.4571253369e+02 +7.2093192681e+01 2.4261909336e+02 1.7300000000e+02 0.0000e+00 -1.0000e+00
       -6  1    1    2    0  502 -1.9294241007e+01 -1.1157569855e+02 -3.5780947110e+01 2.0983488847e+02 1.7300000000e+02 0.0000e+00 -1.0000e+00
       21  1    1    2  504  503 -2.6595084391e+01 +1.2362137452e+01 -7.0790590744e+01 7.6625248411e+01 0.0000000000e+00 0.0000e+00 1.0000e+00
       21  1    1    2  505  504 -4.1651804502e+00 -4.6498972593e+01 +1.5381193007e+02 1.6074082559e+02 0.0000000000e+00 0.0000e+00 -1.0000e+00
<mgrwt>
<rscale>  4 0.21412288E+03</rscale>
<asrwt>0</asrwt>
<pdfrwt beam="1">  1       21 0.62242588E-01 0.21412288E+03</pdfrwt>
<pdfrwt beam="2">  1       21 0.43883575E-01 0.21412288E+03</pdfrwt>
<totfact> 0.11778506E+04</totfact>
</mgrwt>
</event>
<event>
 6      1 +2.5196620e+02 2.31925100e+02 7.54677100e-03 1.13287100e-01
       21 -1    0    0  505  502 +0.0000000000e+00 +0.0000000000e+00 +2.9734493904e+02 2.9734493904e+02 0.0000000000e+00 0.0000e+00 -1.0000e+00
       21 -1    0    0  502  503 -0.0000000000e+00 -0.0000000000e+00 -3.5425716412e+02 3.5425716412e+02 0.0000000000e+00 0.0000e+00 1.0000e+00
        6  1    1    2  501    0 -7.3359187438e+01 -1.1790136834e+02 -1.9242720237e+02 2.9366567938e+02 1.7300000000e+02 0.0000e+00 1.0000e+00
       -6  1    1    2    0  503 +9.3620250264e+01 +1.0716542343e+02 +1.1546278361e+02 2.5201157441e+02 1.7300000000e+02 0.0000e+00 -1.0000e+00
       21  1    1    2  504  501 -3.0115267175e+01 -1.4369246021e+01 -3.2674118902e+01 4.6701205490e+01 0.0000000000e+00 0.0000e+00 -1.0000e+00
       21  1    1    2  505  504 +9.8542043494e+00 +2.5105190926e+01 +5.2726312585e+01 5.9223643873e+01 0.0000000000e+00 0.0000e+00 -1.0000e+00
<mgrwt>
<rscale>  4 0.23192509E+03</rscale>
<asrwt>0</asrwt>
<pdfrwt beam="1">  1       21 0.45745375E-01 0.23192509E+03</pdfrwt>
<pdfrwt beam="2">  1       21 0.54501102E-01 0.23192509E+03</pdfrwt>
<totfact> 0.14224057E+04</totfact>
</mgrwt>
</event>
<event>
 6      1 +2.5196620e+02 2.33248200e+02 7.54677100e-03 1.06301000e-01
       21 -1    0    0  503  502 +0.0000000000e+00 +0.0000000000e+00 +2.9660865213e+02 2.9660865213e+02 0.0000000000e+00 0.0000e+00 1.0000e+00
       21 -1    0    0  504  503 -0.0000000000e+00 -0.0000000000e+00 -5.2255610784e+02 5.2255610784e+02 0.0000000000e+00 0.0000e+00 -1.0000e+00
        6  1    1    2  501    0 +3.2352432828e+01 -1.6317245977e+02 -2.0771958439e+02 3.1740881726e+02 1.7300000000e+02 0.0000e+00 -1.0000e+00
       -6  1    1    2    0  505 -6.9952864678e+01 +1.2743663364e+02 +9.1847114934e+01 2.4392292101e+02 1.7300000000e+02 0.0000e+00 1.0000e+00
       21  1    1    2  504  501 +1.6614972325e+01 +1.2062637464e+01 -1.7995662794e+02 1.8112413552e+02 0.0000000000e+00 0.0000e+00 -1.0000e+00
       21  1    1    2  505  502 +2.0985459526e+01 +2.3673188664e+01 +6.9881641690e+01 7.6708886175e+01 0.0000000000e+00 0.0000e+00 -1.0000e+00
<mgrwt>
<rscale>  4 0.23324817E+03</rscale>
<asrwt>0</asrwt>
<pdfrwt beam="1">  1       21 0.45632101E-01 0.23324817E+03</pdfrwt>
<pdfrwt beam="2">  1       21 0.80393247E-01 0.23324817E+03</pdfrwt>
<totfact> 0.60851613E+03</totfact>
</mgrwt>
</event>
<event>
 6      1 +2.5196620e+02 1.79557900e+02 7.54677100e-03 9.49153200e-02
       21 -1    0    0  505  502 +0.0000000000e+00 +0.0000000000e+00 +3.2233127795e+02 3.2233127795e+02 0.0000000000e+00 0.0000e+00 -1.0000e+00
       21 -1    0    0  501  503 -0.0000000000e+00 -0.0000000000e+00 -1.5855079304e+03 1.5855079304e+03 0.0000000000e+00 0.0000e+00 1.0000e+00
        6  1    1    2  501    0 -3.3460846016e+01 +2.0415852544e+01 -3.2618677216e+02 3.7129940154e+02 1.7300000000e+02 0.0000e+00 1.0000e+00
       -6  1    1    2    0  502 -1.5658455320e+01 -1.0971483887e+02 -2.7391898562e+02 3.4240786173e+02 1.7300000000e+02 0.0000e+00 1.0000e+00
       21  1    1    2  504  503 -9.0227987360e+00 -5.4944499166e+01 -9.0490003097e+02 9.0661147960e+02 0.0000000000e+00 0.0000e+00 1.0000e+00
       21  1    1    2  505  504 +5.8142100072e+01 +1.4424348549e+02 +2.4182913631e+02 2.8752046549e+02 0.0000000000e+00 0.0000e+00 -1.0000e+00
<mgrwt>
<rscale>  4 0.17955785E+03</rscale>
<asrwt>0</asrwt>
<pdfrwt beam="1">  1       21 0.49589427E-01 0.17955785E+03</pdfrwt>
<pdfrwt beam="2">  1       21 0.24392430E+00 0.17955785E+03</pdfrwt>
<totfact> 0.28525058E+02</totfact>
</mgrwt>
</event>
<event>
 6      1 +2.5196620e+02 1.73010000e+02 7.54677100e-03 1.13287100e-01
       21 -1    0    0  505  502 +0.0000000000e+00 +0.0000000000e+00 +1.4354903746e+02 1.4354903746e+02 0.0000000000e+00 0.0000e+00 -1.0000e+00
       21 -1    0    0  502  503 -0.0000000000e+00 -0.0000000000e+00 -7.4775860629e+02 7.4775860629e+02 0.0000000000e+00 0.0000e+00 -1.0000e+00
        6  1    1    2  501    0 -8.9993309438e+01 +7.0480599542e+01 -1.8128568175e+02 2.7542659469e+02 1.7300000000e+02 0.0000e+00 -1.0000e+00
       -6  1    1    2    0  503 -6.1440400234e+01 +4.5293191432e+01 -8.7904376352e+01 2.0852475957e+02 1.7300000000e+02 0.0000e+00 1.0000e+00
       21  1    1    2  504  501 +2.6616336598e+01 -5.7229659113e+01 -2.1662018752e+02 2.2562794352e+02 0.0000000000e+00 0.0000e+00 -1.0000e+00
       21  1    1    2  505  504 +1.2481737307e+02 -5.8544131861e+01 -1.1839932321e+02 1.8172834598e+02 0.0000000000e+00 0.0000e+00 -1.0000e+00
<mgrwt>
<rscale>  4 0.17300998E+03</rscale>
<asrwt>0</asrwt>
<pdfrwt beam="1">  1       21 0.22084467E-01 0.17300998E+03</pdfrwt>
<pdfrwt beam="2">  1       21 0.11503979E+00 0.17300998E+03</pdfrwt>
<totfact> 0.11385407E+04</totfact>
</mgrwt>
</event>
<event>
 6      1 +2.5196620e+02 2.21829100e+02 7.54677100e-03 1.09711200e-01
       21 -1    0    0  504  502 +0.0000000000e+00 +0.0000000000e+00 +8.0980810390e+02 8.0980810390e+02 0.0000000000e+00 0.0000e+00 1.0000e+00
       21 -1    0    0  505  503 -0.0000000000e+00 -0.0000000000e+00 -1.9985806312e+02 1.9985806312e+02 0.0000000000e+00 0.0000e+00 -1.0000e+00
        6  1    1    2  501    0 -3.3449531798e+01 -1.3825475821e+02 +6.0559262893e+01 2.3201222741e+02 1.7300000000e+02 0.0000e+00 -1.0000e+00
       -6  1    1    2    0  503 +9.4608991639e+01 +1.0801108277e+02 +2.9640415651e+01 2.2677038947e+02 1.7300000000e+02 0.0000e+00 1.0000e+00
       21  1    1    2  504  501 +1.8180418832e+01 -3.9063509303e+01 +3.7065646128e+01 5.6836146165e+01 0.0000000000e+00 0.0000e+00 -1.0000e+00
       21  1    1    2  505  502 -7.9339878673e+01 +6.9307184749e+01 +4.8268471612e+02 4.9404740398e+02 0.0000000000e+00 0.0000e+00 1.0000e+00
<mgrwt>
<rscale>  4 0.22182912E+03</rscale>
<asrwt>0</asrwt>
<pdfrwt beam="1">  1       21 0.12458586E+00 0.22182912E+03</pdfrwt>
<pdfrwt beam="2">  1       21 0.30747395E-01 0.22182912E+03</pdfrwt>
<totfact> 0.47746707E+03</totfact>
</mgrwt>
</event>
<event>
 6      1 +2.5196620e+02 2.06926700e+02 7.54677100e-03 1.15987100e-01
       21 -1    0    0  501  502 +0.0000000000e+00 +0.0000000000e+00 +1.8394349977e+02 1.8394349977e+02 0.0000000000e+00 0.0000e+00 -1.0000e+00
       21 -1    0    0  504  503 -0.0000000000e+00 -0.0000000000e+00 -9.0997271358e+02 9.0997271358e+02 0.0000000000e+00 0.0000e+00 1.0000e+00
        6  1    1    2  501    0 +7.7821087034e+01 -9.3875674095e+01 -3.2150327359e+01 2.1408271141e+02 1.7300000000e+02 0.0000e+00 -1.0000e+00
       -6  1    1    2    0  505 +8.0079484825e+01 +1.4112986644e+02 -1.1680813894e+02 2.6439270870e+02 1.7300000000e+02 0.0000e+00 1.0000e+00
       21  1    1    2  504  502 -1.7855112819e+02 -3.3254930402e+01 -5.4702319473e+02 5.7638595693e+02 0.0000000000e+00 0.0000e+00 1.0000e+00
       21  1    1    2  505  503 +2.0650556333e+01 -1.3999261941e+01 -3.0047552788e+01 3.9054836324e+01 0.0000000000e+00 0.0000e+00 -1.0000e+00
<mgrwt>
<rscale>  4 0.20692674E+03</rscale>
<asrwt>0</asrwt>
<pdfrwt beam="1">  1       21 0.28298999E-01 0.20692674E+03</pdfrwt>
<pdfrwt beam="2">  1       21 0.13999581E+00 0.20692674E+03</pdfrwt>
<totfact> 0.42203491E+03</totfact>
</mgrwt>
</event>
<event>
 6      1 +2.5196620e+02 1.92692400e+02 7.54677100e-03 1.09711200e-01
       21 -1    0    0  505  502 +0.0000000000e+00 +0.0000000000e+00 +4.2738425229e+02 4.2738425229e+02 0.0000000000e+00 0.0000e+00 -1.0000e+00
       21 -1    0    0  504  503 -0.0000000000e+00 -0.0000000000e+00 -1.9329070995e+02 1.9329070995e+02 0.0000000000e+00 0.0000e+00 -1.0000e+00
        6  1    1    2  501    0 -9.2466654961e+01 +2.7985658807e+01 -1.7831534826e+01 1.9894783993e+02 1.7300000000e+02 0.0000e+00 -1.0000e+00
       -6  1    1    2    0  503 +5.2037970259e+01 -5.3796515278e+01 +5.3172527216e+01 1.9585283520e+02 1.7300000000e+02 0.0000e+00 -1.0000e+00
       21  1    1    2  504  502 -1.2903485120e+01 -2.7377043130e+01 +4.0001428422e+01 5.0160908031e+01 0.0000000000e+00 0.0000e+00 1.0000e+00
       21  1    1    2  505  501 +5.3332169822e+01 +5.3187899601e+01 +1.5875112153e+02 1.7571337908e+02 0.0000000000e+00 0.0000e+00 -1.0000e+00
<mgrwt>
<rscale>  4 0.19269238E+03</rscale>
<asrwt>0</asrwt>
<pdfrwt beam="1">  1       21 0.65751423E-01 0.19269238E+03</pdfrwt>
<pdfrwt beam="2">  1       21 0.29737032E-01 0.19269238E+03</pdfrwt>
<totfact> 0.23043568E+04</totfact>
</mgrwt>
</event>
<event>
 6      1 +2.5196620e+02 1.81358800e+02 7.54677100e-03 1.16558800e-01
       21 -1    0    0  505  502 +0.0000000000e+00 +0.0000000000e+00 +2.6622994436e+02 2.6622994436e+02 0.0000000000e+00 0.0000e+00 -1.0000e+00
       21 -1    0    0  504  503 -0.0000000000e+00 -0.0000000000e+00 -1.3668699876e+03 1.3668699876e+03 0.0000000000e+00 0.0000e+00 -1.0000e+00
        6  1    1    2  501    0 +3.1957470603e+01 -7.2974205676e+01 -1.2064225068e+03 1.2213643107e+03 1.7300000000e+02 0.0000e+00 -1.0000e+00
       -6  1    1    2    0  502 -4.1916025140e+01 +9.5673755006e+01 +6.5335960851e+01 2.1238693072e+02 1.7300000000e+02 0.0000e+00 -1.0000e+00
       21  1    1    2  504  501 -1.7413449149e+01 +2.6352667718e+01 -6.9246079776e+01 7.6109860540e+01 0.0000000000e+00 0.0000e+00 -1.0000e+00
       21  1    1    2  505  503 +2.7372003686e+01 -4.9052217049e+01 +1.0969258244e+02 1.2323883002e+02 0.0000000000e+00 0.0000e+00 -1.0000e+00
<mgrwt>
<rscale>  4 0.18135882E+03</rscale>
<asrwt>0</asrwt>
<pdfrwt beam="1">  1       21 0.40958453E-01 0.18135882E+03</pdfrwt>
<pdfrwt beam="2">  1       21 0.21028769E+00 0.18135882E+03</pdfrwt>
<totfact> 0.67284541E+02</totfact>
</mgrwt>
</event>
<event>
 6      1 +2.5196620e+02 1.81707200e+02 7.54677100e-03 1.16268000e-01
       21 -1    0    0  504  502 +0.0000000000e+00 +0.0000000000e+00 +9.2308382531e+01 9.2308382531e+01 0.0000000000e+00 0.0000e+00 1.0000e+00
       21 -1    0    0  505  503 -0.0000000000e+00 -0.0000000000e+00 -1.4306061006e+03 1.4306061006e+03 0.0000000000e+00 0.0000e+00 1.0000e+00
        6  1    1    2  501    0 -8.7001855393e+01 +4.0889509425e+01 -2.0343855083e+02 2.8382656462e+02 1.7300000000e+02 0.0000e+00 1.0000e+00
       -6  1    1    2    0  503 +2.5166887738e+01 -4.3794709943e+01 -1.0895401045e+03 1.1043450494e+03 1.7300000000e+02 0.0000e+00 1.0000e+00
       21  1    1    2  504  501 -2.9281775289e+01 +3.9306086377e+00 +6.0223853203e+00 3.0151967984e+01 0.0000000000e+00 0.0000e+00 1.0000e+00
       21  1    1    2  505  502 +9.1116742945e+01 -1.0254081194e+00 -5.1341448071e+01 1.0459090112e+02 0.0000000000e+00 0.0000e+00 1.0000e+00
<mgrwt>
<rscale>  4 0.18170723E+03</rscale>
<asrwt>0</asrwt>
<pdfrwt beam="1">  1       21 0.14201290E-01 0.18170723E+03</pdfrwt>
<pdfrwt beam="2">  1       21 0.22009324E+00 0.18170723E+03</pdfrwt>
<totfact> 0.44012836E+03</totfact>
</mgrwt>
</event>
<event>
 6      1 +2.5196620e+02 2.41790400e+02 7.54677100e-03 1.07326700e-01
       21 -1    0    0  503  502 +0.0000000000e+00 +0.0000000000e+00 +1.5849695385e+02 1.5849695385e+02 0.0000000000e+00 0.0000e+00 1.0000e+00
       21 -1    0    0  501  503 -0.0000000000e+00 -0.0000000000e+00 -5.2454665832e+02 5.2454665832e+02 0.0000000000e+00 0.0000e+00 1.0000e+00
        6  1    1    2  501    0 -1.1381495261e+02 +1.2821710995e+02 -2.0119687763e+02 3.1591558096e+02 1.7300000000e+02 0.0000e+00 1.0000e+00
       -6  1    1    2    0  504 +1.6274026851e+02 -6.6508586859e+01 -1.3813425682e+02 2.8269747086e+02 1.7300000000e+02 0.0000e+00 1.0000e+00
       21  1    1    2  504  505 -9.7304922406e+00 -2.1184985924e+01 -4.0269730017e+00 2.3658034986e+01 0.0000000000e+00 0.0000e+00 1.0000e+00
       21  1    1    2  505  502 -3.9194823659e+01 -4.0523537163e+01 -2.2691597004e+01 6.0772525374e+01 0.0000000000e+00 0.0000e+00 1.0000e+00
<mgrwt>
<rscale>  4 0.24179043E+03</rscale>
<asrwt>0</asrwt>
<pdfrwt beam="1">  1       21 0.24384147E-01 0.24179043E+03</pdfrwt>
<pdfrwt beam="2">  1       21 0.80699485E-01 0.24179043E+03</pdfrwt>
<totfact> 0.20840846E+04</totfact>
</mgrwt>
</event>
<event>
 6      1 +2.5196620e+02 2.19863700e+02 7.54677100e-03 1.16128000e-01
       21 -1    0    0  501  502 +0.0000000000e+00 +0.0000000000e+00 +1.3777104946e+02 1.3777104946e+02 0.0000000000e+00 0.0000e+00 -1.0000e+00
       21 -1    0    0  505  503 -0.0000000000e+00 -0.0000000000e+00 -6.5836274023e+02 6.5836274023e+02 0.0000000000e+00 0.0000e+00 -1.0000e+00
        6  1    1    2  501    0 -1.2020488403e+02 -2.9381518113e+01 -2.7034089175e+01 2.1441158954e+02 1.7300000000e+02 0.0000e+00 -1.0000e+00
       -6  1    1    2    0  503 +1.7027987095e+02 +3.3304011564e+01 -3.4154568076e+02 4.2034134186e+02 1.7300000000e+02 0.0000e+00 -1.0000e+00
       21  1    1    2  504  502 -2.5697211992e+01 -3.1870908476e+00 -4.7905963048e+01 5.4456271887e+01 0.0000000000e+00 0.0000e+00 -1.0000e+00
       21  1    1    2  505  504 -2.4377774923e+01 -7.3540260390e-01 -1.0410595779e+02 1.0692458639e+02 0.0000000000e+00 0.0000e+00 -1.0000e+00
<mgrwt>
<rscale>  4 0.21986370E+03</rscale>
<asrwt>0</asrwt>
<pdfrwt beam="1">  1       21 0.21195546E-01 0.21986370E+03</pdfrwt>
<pdfrwt beam="2">  1       21 0.10128658E+00 0.21986370E+03</pdfrwt>
<totfact> 0.16209026E+04</totfact>
</mgrwt>
</event>
<event>
 6      1 +2.5196620e+02 1.92857300e+02 7.54677100e-03 9.49153200e-02
       21 -1    0    0  505  502 +0.0000000000e+00 +0.0000000000e+00 +1.2960538490e+03 1.2960538490e+03 0.0000000000e+00 0.0000e+00 1.0000e+00
       21 -1    0    0  501  503 -0.0000000000e+00 -0.0000000000e+00 -7.0335525270e+02 7.0335525270e+02 0.0000000000e+00 0.0000e+00 1.0000e+00
        6  1    1    2  501    0 +6.1276108014e+01 -4.9275402526e+01 +6.9031082098e+01 2.0218090168e+02 1.7300000000e+02 0.0000e+00 1.0000e+00
       -6  1    1    2    0  502 -8.9915920375e+01 +3.9426644183e+01 +1.4748818623e+02 2.4763097158e+02 1.7300000000e+02 0.0000e+00 1.0000e+00
       21  1    1    2  504  503 +1.0459339125e+01 +2.4416498234e+01 -5.8626727269e+02 5.8686870609e+02 0.0000000000e+00 0.0000e+00 1.0000e+00
       21  1    1    2  505  504 +1.8180473236e+01 -1.4567739892e+01 +9.6244660061e+02 9.6272852232e+02 0.0000000000e+00 0.0000e+00 1.0000e+00
<mgrwt>
<rscale>  4 0.19285726E+03</rscale>
<asrwt>0</asrwt>
<pdfrwt beam="1">  1       21 0.19939290E+00 0.19285726E+03</pdfrwt>
<pdfrwt beam="2">  1       21 0.10820850E+00 0.19285726E+03</pdfrwt>
<totfact> 0.92039919E+01</totfact>
</mgrwt>
</event>
<event>
 6      1 +2.5196620e+02 3.21996300e+02 7.54677100e-03 1.13287100e-01
       21 -1    0    0  505  502 +0.0000000000e+00 +0.0000000000e+00 +1.0771262822e+03 1.0771262822e+03 0.0000000000e+00 0.0000e+00 1.0000e+00
       21 -1    0    0  502  503 -0.0000000000e+00 -0.0000000000e+00 -1.1167498340e+03 1.1167498340e+03 0.0000000000e+00 0.0000e+00 -1.0000e+00
        6  1    1    2  501    0 +4.6583252371e+02 -3.8324932022e+01 +5.3624310639e+02 7.3208907225e+02 1.7300000000e+02 0.0000e+00 1.0000e+00
       -6  1    1    2    0  503 -2.6194837239e+02 -3.3302912072e+01 -9.4839279141e+02 9.9955185986e+02 1.7300000000e+02 0.0000e+00 -1.0000e+00
       21  1    1    2  504  501 +2.2733356759e+01 +1.4460325553e+01 +6.1098750674e+00 2.7626746062e+01 0.0000000000e+00 0.0000e+00 1.0000e+00
       21  1    1    2  505  504 -2.2661750808e+02 +5.7167518541e+01 +3.6641625817e+02 4.3460843802e+02 0.0000000000e+00 0.0000e+00 1.0000e+00
<mgrwt>
<rscale>  4 0.32199634E+03</rscale>
<asrwt>0</asrwt>
<pdfrwt beam="1">  1       21 0.16571174E+00 0.32199634E+03</pdfrwt>
<pdfrwt beam="2">  1       21 0.17180767E+00 0.32199634E+03</pdfrwt>
<totfact> 0.40633128E+01</totfact>
</mgrwt>
</event>
<event>
 6      1 +2.5196620e+02 1.86764700e+02 7.54677100e-03 1.06301000e-01
       21 -1    0    0  505  502 +0.0000000000e+00 +0.0000000000e+00 +9.2845157983e+01 9.2845157983e+01 0.0000000000e+00 0.0000e+00 -1.0000e+00
       21 -1    0    0  504  503 -0.0000000000e+00 -0.0000000000e+00 -5.9826391110e+02 5.9826391110e+02 0.0000000000e+00 0.0000e+00 -1.0000e+00
        6  1    1    2  501    0 +6.5740382764e+01 -3.7847420945e+00 -1.6705385705e+02 2.4934336437e+02 1.7300000000e+02 0.0000e+00 1.0000e+00
       -6  1    1    2    0  502 -7.5228742453e+01 -1.1258403607e+01 -2.0036710613e+02 2.7543074004e+02 1.7300000000e+02 0.0000e+00 1.0000e+00
       21  1    1    2  504  501 +6.7701569080e+00 +4.6000798187e+01 -1.2365554167e+02 1.3210829438e+02 0.0000000000e+00 0.0000e+00 -1.0000e+00
       21  1    1    2  505  503 +2.7182027815e+00 -3.0957652485e+01 -1.4342248266e+01 3.4226670289e+01 0.0000000000e+00 0.0000e+00 -1.0000e+00
<mgrwt>
<rscale>  4 0.18676472E+03</rscale>
<asrwt>0</asrwt>
<pdfrwt beam="1">  1       21 0.14283871E-01 0.18676472E+03</pdfrwt>
<pdfrwt beam="2">  1       21 0.92040600E-01 0.18676472E+03</pdfrwt>
<totfact> 0.42889767E+04</totfact>
</mgrwt>
</event>
<event>
 6      1 +2.5196620e+02 2.32912800e+02 7.54677100e-03 1.04211500e-01
       21 -1    0    0  504  502 +0.0000000000e+00 +0.0000000000e+00 +8.5364532225e+02 8.5364532225e+02 0.0000000000e+00 0.0000e+00 1.0000e+00
       21 -1    0    0  501  503 -0.0000000000e+00 -0.0000000000e+00 -2.8361981554e+02 2.8361981554e+02 0.0000000000e+00 0.0000e+00 1.0000e+00
        6  1    1    2  501    0 +1.7700622039e+02 -5.9522720782e+01 -1.4116288178e+02 2.9108437872e+02 1.7300000000e+02 0.0000e+00 1.0000e+00
       -6  1    1    2    0  502 +2.6439779866e+01 +1.2574083143e+02 +2.8221389669e+02 3.5508238781e+02 1.7300000000e+02 0.0000e+00 -1.0000e+00
       21  1    1    2  504  505 -1.7184303202e+02 -8.4472148342e+01 +4.0338365476e+02 4.4652429321e+02 0.0000000000e+00 0.0000e+00 1.0000e+00
       21  1    1    2  505  503 -3.1602968234e+01 +1.8254037697e+01 +2.5590837037e+01 4.4574078047e+01 0.0000000000e+00 0.0000e+00 -1.0000e+00
<mgrwt>
<rscale>  4 0.23291278E+03</rscale>
<asrwt>0</asrwt>
<pdfrwt beam="1">  1       21 0.13133005E+00 0.23291278E+03</pdfrwt>
<pdfrwt beam="2">  1       21 0.43633818E-01 0.23291278E+03</pdfrwt>
<totfact> 0.20532519E+03</totfact>
</mgrwt>
</event>
<event>
 6      1 +2.5196620e+02 2.26710600e+02 7.54677100e-03 9.49153200e-02
       21 -1    0    0  505  502 +0.0000000000e+00 +0.0000000000e+00 +1.8668001703e+02 1.8668001703e+02 0.0000000000e+00 0.0000e+00 1.0000e+00
       21 -1    0    0  501  503 -0.0000000000e+00 -0.0000000000e+00 -6.1894487781e+02 6.1894487781e+02 0.0000000000e+00 0.0000e+00 -1.0000e+00
        6  1    1    2  501    0 +1.3735193942e+02 -3.8548460666e+01 +7.0231091198e+00 2.2434318163e+02 1.7300000000e+02 0.0000e+00 1.0000e+00
       -6  1    1    2    0  502 -1.2249385333e+02 +2.9799446639e+01 -2.5535105103e+02 3.3320550774e+02 1.7300000000e+02 0.0000e+00 1.0000e+00
       21  1    1    2  504  503 -2.6296275606e+01 +4.0416703222e+01 -2.0350056379e+02 2.0913508427e+02 0.0000000000e+00 0.0000e+00 1.0000e+00
       21  1    1    2  505  504 +1.1438189520e+01 -3.1667689195e+01 +1.9563644920e+01 3.8941121209e+01 0.0000000000e+00 0.0000e+00 1.0000e+00
<mgrwt>
<rscale>  4 0.22671059E+03</rscale>
<asrwt>0</asrwt>
<pdfrwt beam="1">  1       21 0.28720002E-01 0.22671059E+03</pdfrwt>
<pdfrwt beam="2">  1       21 0.95222289E-01 0.22671059E+03</pdfrwt>
<totfact> 0.10446755E+04</totfact>
</mgrwt>
</event>
<event>
 6      1 +2.5196620e+02 2.06942500e+02 7.54677100e-03 9.49153200e-02
       21 -1    0    0  505  502 +0.0000000000e+00 +0.0000000000e+00 +7.5763048582e+02 7.5763048582e+02 0.0000000000e+00 0.0000e+00 -1.0000e+00
       21 -1    0    0  501  503 -0.0000000000e+00 -0.0000000000e+00 -2.6273365770e+02 2.6273365770e+02 0.0000000000e+00 0.0000e+00 1.0000e+00
        6  1    1    2  501    0 -1.6015609747e+02 +1.2095710187e+02 +4.2699495816e+02 5.0252790007e+02 1.7300000000e+02 0.0000e+00 -1.0000e+00
       -6  1    1    2    0  502 +5.6363817676e+01 -8.3628306608e+01 +5.5498944502e+01 2.0779727248e+02 1.7300000000e+02 0.0000e+00 1.0000e+00
       21  1    1    2  504  503 +2.4308938155e+01 +5.3005493351e+01 -1.1860173027e+02 1.3216231393e+02 0.0000000000e+00 0.0000e+00 1.0000e+00
       21  1    1    2  505  504 +7.9483341638e+01 -9.0334288616e+01 +1.3100465573e+02 1.7787665704e+02 0.0000000000e+00 0.0000e+00 -1.0000e+00
<mgrwt>
<rscale>  4 0.20694248E+03</rscale>
<asrwt>0</asrwt>
<pdfrwt beam="1">  1       21 0.11655854E+00 0.20694248E+03</pdfrwt>
<pdfrwt beam="2">  1       21 0.40420563E-01 0.20694248E+03</pdfrwt>
<totfact> 0.33054420E+03</totfact>
</mgrwt>
</event>
<event>
 6      1 +2.5196620e+02 2.86801700e+02 7.54677100e-03 1.07655700e-01
       21 -1    0    0  501  502 +0.0000000000e+00 +0.0000000000e+00 +9.9912757755e+02 9.9912757755e+02 0.0000000000e+00 0.0000e+00 1.0000e+00
       21 -1    0    0  504  503 -0.0000000000e+00 -0.0000000000e+00 -6.8289541526e+02 6.8289541526e+02 0.0000000000e+00 0.0000e+00 -1.0000e+00
        6  1    1    2  501    0 +7.7658322825e+01 -2.9551913271e+02 +4.8382590484e+02 5.9781174218e+02 1.7300000000e+02 0.0000e+00 1.0000e+00
       -6  1    1    2    0  505 -7.9222727611e+01 +1.6448113554e+02 +3.9648663173e+02 4.6953267581e+02 1.7300000000e+02 0.0000e+00 -1.0000e+00
       21  1    1    2  504  502 -2.1203442816e+01 +1.3973477602e+02 -5.7188222114e+02 5.8908799723e+02 0.0000000000e+00 0.0000e+00 -1.0000e+00
       21  1    1    2  505  503 +2.2767847602e+01 -8.6967788475e+00 +7.8018468720e+00 2.5590577590e+01 0.0000000000e+00 0.0000e+00 -1.0000e+00
<mgrwt>
<rscale>  4 0.28680169E+03</rscale>
<asrwt>0</asrwt>
<pdfrwt beam="1">  1       21 0.15371194E+00 0.28680169E+03</pdfrwt>
<pdfrwt beam="2">  1       21 0.10506083E+00 0.28680169E+03</pdfrwt>
<totfact> 0.18510413E+02</totfact>
</mgrwt>
</event>
<event>
 6      1 +2.5196620e+02 2.25732300e+02 7.54677100e-03 9.49153200e-02
       21 -1    0    0  503  502 +0.0000000000e+00 +0.0000000000e+00 +1.7437681733e+03 1.7437681733e+03 0.0000000000e+00 0.0000e+00 -1.0000e+00
       21 -1    0    0  504  503 -0.0000000000e+00 -0.0000000000e+00 -9.6734370396e+01 9.6734370396e+01 0.0000000000e+00 0.0000e+00 -1.0000e+00
        6  1    1    2  501    0 -2.3632102283e+02 +2.4972345356e+01 +1.0322072440e+03 1.0732436994e+03 1.7300000000e+02 0.0000e+00 1.0000e+00
       -6  1    1    2    0  505 +1.2935303515e+02 +1.1492964265e+01 +1.1314813957e+02 2.4412250494e+02 1.7300000000e+02 0.0000e+00 1.0000e+00
       21  1    1    2  504  501 +9.9907078230e+01 -1.3307070541e+01 +2.3951728912e+02 2.5985964326e+02 0.0000000000e+00 0.0000e+00 -1.0000e+00
       21  1    1    2  505  502 +7.0609094482e+00 -2.3158239081e+01 +2.6216113026e+02 2.6327669608e+02 0.0000000000e+00 0.0000e+00 -1.0000e+00
<mgrwt>
<rscale>  4 0.22573235E+03</rscale>
<asrwt>0</asrwt>
<pdfrwt beam="1">  1       21 0.26827200E+00 0.22573235E+03</pdfrwt>
<pdfrwt beam="2">  1       21 0.14882212E-01 0.22573235E+03</pdfrwt>
<totfact> 0.19950503E+03</totfact>
</mgrwt>
</event>
<event>
 6      1 +2.5196620e+02 3.27179200e+02 7.54677100e-03 1.09711200e-01
       21 -1    0    0  501  502 +0.0000000000e+00 +0.0000000000e+00 +4.2037753123e+02 4.2037753123e+02 0.0000000000e+00 0.0000e+00 -1.0000e+00
       21 -1    0    0  505  503 -0.0000000000e+00 -0.0000000000e+00 -4.9150915920e+02 4.9150915920e+02 0.0000000000e+00 0.0000e+00 -1.0000e+00
        6  1    1    2  501    0 +4.6609482683e+01 +2.6879899853e+02 -2.4858941821e+02 4.0761629547e+02 1.7300000000e+02 0.0000e+00 -1.0000e+00
       -6  1    1    2    0  503 -3.7653554632e+01 -2.4462177730e+02 +7.5906052801e+01 3.1136527256e+02 1.7300000000e+02 0.0000e+00 -1.0000e+00
       21  1    1    2  504  502 -2.2409754962e+01 -5.6885972494e+01 +1.3248882303e+02 1.4591606907e+02 0.0000000000e+00 0.0000e+00 -1.0000e+00
       21  1    1    2  505  504 +1.3453826911e+01 +3.2708751263e+01 -3.0937085596e+01 4.6989053331e+01 0.0000000000e+00 0.0000e+00 -1.0000e+00
<mgrwt>
<rscale>  4 0.32717920E+03</rscale>
<asrwt>0</asrwt>
<pdfrwt beam="1">  1       21 0.64673466E-01 0.32717920E+03</pdfrwt>
<pdfrwt beam="2">  1       21 0.75616794E-01 0.32717920E+03</pdfrwt>
<totfact> 0.31529285E+03</totfact>
</mgrwt>
</event>
<event>
 6      1 +2.5196620e+02 2.21354100e+02 7.54677100e-03 1.16128000e-01
       21 -1    0    0  501  502 +0.0000000000e+00 +0.0000000000e+00 +3.0644441792e+02 3.0644441792e+02 0.0000000000e+00 0.0000e+00 -1.0000e+00
       21 -1    0    0  504  503 -0.0000000000e+00 -0.0000000000e+00 -3.6454162876e+02 3.6454162876e+02 0.0000000000e+00 0.0000e+00 1.0000e+00
        6  1    1    2  501    0 +2.5810227688e+01 +1.1598714302e+02 +2.2643435370e+01 2.1109455314e+02 1.7300000000e+02 0.0000e+00 -1.0000e+00
       -6  1    1    2    0  503 +1.4052002290e+02 -1.5851971743e+02 -2.2061439269e+01 2.7439038750e+02 1.7300000000e+02 0.0000e+00 -1.0000e+00
       21  1    1    2  504  505 -3.2017534506e+01 +1.9267534046e+01 -2.5404878455e+01 4.5185929595e+01 0.0000000000e+00 0.0000e+00 -1.0000e+00
       21  1    1    2  505  502 -1.3431271608e+02 +2.3265040370e+01 -3.3274328488e+01 1.4031517644e+02 0.0000000000e+00 0.0000e+00 -1.0000e+00
<mgrwt>
<rscale>  4 0.22135408E+03</rscale>
<asrwt>0</asrwt>
<pdfrwt beam="1">  1       21 0.47145295E-01 0.22135408E+03</pdfrwt>
<pdfrwt beam="2">  1       21 0.56083327E-01 0.22135408E+03</pdfrwt>
<totfact> 0.12651626E+04</totfact>
</mgrwt>
</event>
<event>
 6      1 +2.5196620e+02 1.90043900e+02 7.54677100e-03 9.49153200e-02
       21 -1    0    0  504  502 +0.0000000000e+00 +0.0000000000e+00 +3.0787067310e+02 3.0787067310e+02 0.0000000000e+00 0.0000e+00 -1.0000e+00
       21 -1    0    0  501  503 -0.0000000000e+00 -0.0000000000e+00 -5.6474082352e+02 5.6474082352e+02 0.0000000000e+00 0.0000e+00 -1.0000e+00
        6  1    1    2  501    0 -5.7100523258e+00 +4.9118206237e+01 -9.8182328774e+01 2.0497310205e+02 1.7300000000e+02 0.0000e+00 -1.0000e+00
       -6  1    1    2    0  505 +1.0820950388e+02 -6.8020330478e+01 -1.0700412807e+02 2.4023935047e+02 1.7300000000e+02 0.0000e+00 -1.0000e+00
       21  1    1    2  504  503 +1.5476598729e+00 +2.6365780553e+01 -2.2422526939e+02 2.2577537746e+02 0.0000000000e+00 0.0000e+00 -1.0000e+00
       21  1    1    2  505  502 -1.0404711142e+02 -7.4636563127e+00 +1.7254157582e+02 2.0162366663e+02 0.0000000000e+00 0.0000e+00 -1.0000e+00
<mgrwt>
<rscale>  4 0.19004389E+03</rscale>
<asrwt>0</asrwt>
<pdfrwt beam="1">  1       21 0.47364719E-01 0.19004389E+03</pdfrwt>
<pdfrwt beam="2">  1       21 0.86883204E-01 0.19004389E+03</pdfrwt>
<totfact> 0.48690832E+03</totfact>
</mgrwt>
</event>
<event>
 6      1 +2.5196620e+02 1.94564700e+02 7.54677100e-03 1.16321900e-01
       21 -1    0    0  504  502 +0.0000000000e+00 +0.0000000000e+00 +1.5045661150e+02 1.5045661150e+02 0.0000000000e+00 0.0000e+00 1.0000e+00
       21 -1    0    0  505  503 -0.0000000000e+00 -0.0000000000e+00 -9.7000659180e+02 9.7000659180e+02 0.0000000000e+00 0.0000e+00 1.0000e+00
        6  1    1    2  501    0 +1.1379331478e+02 -1.6313951630e+01 -2.6759318506e+02 3.3874795379e+02 1.7300000000e+02 0.0000e+00 -1.0000e+00
       -6  1    1    2    0  502 -6.6432326679e+01 +5.0492151574e+01 -1.8714428188e+01 1.9298171214e+02 1.7300000000e+02 0.0000e+00 1.0000e+00
       21  1    1    2  504  503 -8.5946880249e+01 -1.2124723408e+02 -3.8328681976e+02 4.1109189264e+02 0.0000000000e+00 0.0000e+00 1.0000e+00
       21  1    1    2  505  501 +3.8585892151e+01 +8.7069034140e+01 -1.4995554729e+02 1.7764164473e+02 0.0000000000e+00 0.0000e+00 1.0000e+00
<mgrwt>
<rscale>  4 0.19456466E+03</rscale>
<asrwt>0</asrwt>
<pdfrwt beam="1">  1       21 0.23147172E-01 0.19456466E+03</pdfrwt>
<pdfrwt beam="2">  1       21 0.14923178E+00 0.19456466E+03</pdfrwt>
<totfact> 0.53043063E+03</totfact>
</mgrwt>
</event>
<event>
 6      1 +2.5196620e+02 1.78797000e+02 7.54677100e-03 1.02776600e-01
       21 -1    0    0  501  502 +0.0000000000e+00 +0.0000000000e+00 +8.3928295361e+01 8.3928295361e+01 0.0000000000e+00 0.0000e+00 1.0000e+00
       21 -1    0    0  505  503 -0.0000000000e+00 -0.0000000000e+00 -7.2245927481e+02 7.2245927481e+02 0.0000000000e+00 0.0000e+00 1.0000e+00
        6  1    1    2  501    0 -2.7367632939e+01 -4.4304553292e+00 -1.1268801624e+02 2.0831755872e+02 1.7300000000e+02 0.0000e+00 1.0000e+00
       -6  1    1    2    0  503 +7.8760984393e+01 -1.9985526786e+01 -2.7797180475e+02 3.3734261246e+02 1.7300000000e+02 0.0000e+00 -1.0000e+00
       21  1    1    2  504  502 -2.3451922481e+01 +2.3753464770e+01 -4.5477074707e+01 5.6412623415e+01 0.0000000000e+00 0.0000e+00 1.0000e+00
       21  1    1    2  505  504 -2.7941428973e+01 +6.6251734469e-01 -2.0239408375e+02 2.0431477558e+02 0.0000000000e+00 0.0000e+00 1.0000e+00
<mgrwt>
<rscale>  4 0.17879702E+03</rscale>
<asrwt>0</asrwt>
<pdfrwt beam="1">  1       21 0.12912045E-01 0.17879702E+03</pdfrwt>
<pdfrwt beam="2">  1       21 0.11114758E+00 0.17879702E+03</pdfrwt>
<totfact> 0.33029481E+04</totfact>
</mgrwt>
</event>
<event>
 6      1 +2.5196620e+02 2.27999500e+02 7.54677100e-03 9.49153200e-02
       21 -1    0    0  505  502 +0.0000000000e+00 +0.0000000000e+00 +6.6638878022e+02 6.6638878022e+02 0.0000000000e+00 0.0000e+00 1.0000e+00
       21 -1    0    0  504  503 -0.0000000000e+00 -0.0000000000e+00 -1.5758144512e+02 1.5758144512e+02 0.0000000000e+00 0.0000e+00 1.0000e+00
        6  1    1    2  501    0 +4.3725931522e+00 -1.6602151512e+02 +4.0757536351e+02 4.7289421649e+02 1.7300000000e+02 0.0000e+00 1.0000e+00
       -6  1    1    2    0  502 -3.7914000296e+01 +1.5653429841e+02 +4.2447497677e+01 2.4014838758e+02 1.7300000000e+02 0.0000e+00 1.0000e+00
       21  1    1    2  504  501 +1.5857957278e+01 -2.3431685072e+01 -1.2119151441e+01 3.0779741812e+01 0.0000000000e+00 0.0000e+00 1.0000e+00
       21  1    1    2  505  503 +1.7683449866e+01 +3.2918901781e+01 +7.0903625357e+01 8.0147879463e+01 0.0000000000e+00 0.0000e+00 1.0000e+00
<mgrwt>
<rscale>  4 0.22799949E+03</rscale>
<asrwt>0</asrwt>
<pdfrwt beam="1">  1       21 0.10252135E+00 0.22799949E+03</pdfrwt>
<pdfrwt beam="2">  1       21 0.24243300E-01 0.22799949E+03</pdfrwt>
<totfact> 0.12142707E+04</totfact>
</mgrwt>
</event>
<event>
 6      1 +2.5196620e+02 1.85000500e+02 7.54677100e-03 1.16321900e-01
       21 -1    0    0  503  502 +0.0000000000e+00 +0.0000000000e+00 +8.3292272137e+02 8.3292272137e+02 0.0000000000e+00 0.0000e+00 1.0000e+00
       21 -1    0    0  505  503 -0.0000000000e+00 -0.0000000000e+00 -1.0412045098e+02 1.0412045098e+02 0.0000000000e+00 0.0000e+00 1.0000e+00
        6  1    1    2  501    0 +3.4995304175e+01 +7.8971575430e+01 +4.1348093612e+02 4.5646102306e+02 1.7300000000e+02 0.0000e+00 1.0000e+00
       -6  1    1    2    0  502 -3.3814488988e+01 -2.9960514916e+01 +3.1042193199e+02 3.5823431993e+02 1.7300000000e+02 0.0000e+00 1.0000e+00
       21  1    1    2  504  501 +1.4081030148e+01 -6.7157828310e+01 +4.0421570750e+01 7.9638889339e+01 0.0000000000e+00 0.0000e+00 1.0000e+00
       21  1    1    2  505  504 -1.5261845335e+01 +1.8146767796e+01 -3.5522168466e+01 4.2708940012e+01 0.0000000000e+00 0.0000e+00 1.0000e+00
<mgrwt>
<rscale>  4 0.18500051E+03</rscale>
<asrwt>0</asrwt>
<pdfrwt beam="1">  1       21 0.12814195E+00 0.18500051E+03</pdfrwt>
<pdfrwt beam="2">  1       21 0.16018531E-01 0.18500051E+03</pdfrwt>
<totfact> 0.15676054E+04</totfact>
</mgrwt>
</event>
<event>
 6      1 +2.5196620e+02 2.10088100e+02 7.54677100e-03 1.16558800e-01
       21 -1    0    0  505  502 +0.0000000000e+00 +0.0000000000e+00 +1.4648246356e+02 1.4648246356e+02 0.0000000000e+00 0.0000e+00 -1.0000e+00
       21 -1    0    0  504  503 -0.0000000000e+00 -0.0000000000e+00 -7.4607818862e+02 7.4607818862e+02 0.0000000000e+00 0.0000e+00 -1.0000e+00
        6  1    1    2  501    0 -7.0342771560e+01 +8.8246782877e+01 -3.8919402676e+01 2.1018877254e+02 1.7300000000e+02 0.0000e+00 -1.0000e+00
       -6  1    1    2    0  502 +1.5567219791e+02 -8.5737430536e+01 -3.7176001328e+02 4.4689959462e+02 1.7300000000e+02 0.0000e+00 -1.0000e+00
       21  1    1    2  504  501 -7.4192751019e+01 +4.1500826672e+01 -1.6131083333e+02 1.8234052723e+02 0.0000000000e+00 0.0000e+00 -1.0000e+00
       21  1    1    2  505  503 -1.1136675327e+01 -4.4010179014e+01 -2.7605475765e+01 5.3131757796e+01 0.0000000000e+00 0.0000e+00 -1.0000e+00
<mgrwt>
<rscale>  4 0.21008815E+03</rscale>
<asrwt>0</asrwt>
<pdfrwt beam="1">  1       21 0.22535764E-01 0.21008815E+03</pdfrwt>
<pdfrwt beam="2">  1       21 0.11478126E+00 0.21008815E+03</pdfrwt>
<totfact> 0.10732963E+04</totfact>
</mgrwt>
</event>
<event>
 6      1 +2.5196620e+02 3.25734000e+02 7.54677100e-03 1.16558800e-01
       21 -1    0    0  505  502 +0.0000000000e+00 +0.0000000000e+00 +5.8091788830e+02 5.8091788830e+02 0.0000000000e+00 0.0000e+00 1.0000e+00
       21 -1    0    0  504  503 -0.0000000000e+00 -0.0000000000e+00 -3.9187755217e+02 3.9187755217e+02 0.0000000000e+00 0.0000e+00 1.0000e+00
        6  1    1    2  501    0 -1.6909697965e+02 -2.3913831197e+02 -1.8099980191e+02 3.8531915223e+02 1.7300000000e+02 0.0000e+00 1.0000e+00
       -6  1    1    2    0  502 +1.0620249804e+02 +2.7696093306e+02 +3.4377347264e+02 4.8589662432e+02 1.7300000000e+02 0.0000e+00 1.0000e+00
       21  1    1    2  504  501 +3.6718790180e+01 +1.0760656300e+01 -4.2830763677e+00 3.8502026174e+01 0.0000000000e+00 0.0000e+00 -1.0000e+00
       21  1    1    2  505  503 +2.6175691429e+01 -4.8583277385e+01 +3.0549741756e+01 6.3077637754e+01 0.0000000000e+00 0.0000e+00 -1.0000e+00
<mgrwt>
<rscale>  4 0.32573405E+03</rscale>
<asrwt>0</asrwt>
<pdfrwt beam="1">  1       21 0.89371983E-01 0.32573405E+03</pdfrwt>
<pdfrwt beam="2">  1       21 0.60288854E-01 0.32573405E+03</pdfrwt>
<totfact> 0.25032207E+03</totfact>
</mgrwt>
</event>
<event>
 6      1 +2.5196620e+02 1.87079800e+02 7.54677100e-03 1.16321900e-01
       21 -1    0    0  504  502 +0.0000000000e+00 +0.0000000000e+00 +5.9815791293e+02 5.9815791293e+02 0.0000000000e+00 0.0000e+00 1.0000e+00
       21 -1    0    0  501  503 -0.0000000000e+00 -0.0000000000e+00 -7.7847994216e+02 7.7847994216e+02 0.0000000000e+00 0.0000e+00 -1.0000e+00
        6  1    1    2  501    0 +8.8551273370e+01 -6.3818133179e+01 +4.3200639344e+02 4.7798808156e+02 1.7300000000e+02 0.0000e+00 1.0000e+00
       -6  1    1    2    0  502 +1.0510267874e+02 +9.5563508692e+00 +3.0746465616e+01 2.0496888073e+02 1.7300000000e+02 0.0000e+00 -1.0000e+00
       21  1    1    2  504  505 -1.7376985832e+02 +9.0415083373e+01 -3.8128747431e+02 4.2866185861e+02 0.0000000000e+00 0.0000e+00 -1.0000e+00
       21  1    1    2  505  503 -1.9884093794e+01 -3.6153301064e+01 -2.6178741397e+02 2.6501903418e+02 0.0000000000e+00 0.0000e+00 -1.0000e+00
<mgrwt>
<rscale>  4 0.18707982E+03</rscale>
<asrwt>0</asrwt>
<pdfrwt beam="1">  1       21 0.92024295E-01 0.18707982E+03</pdfrwt>
<pdfrwt beam="2">  1       21 0.11976614E+00 0.18707982E+03</pdfrwt>
<totfact> 0.53281055E+02</totfact>
</mgrwt>
</event>
<event>
 6      1 +2.5196620e+02 2.08387600e+02 7.54677100e-03 1.06301000e-01
       21 -1    0    0  505  502 +0.0000000000e+00 +0.0000000000e+00 +5.9802892384e+02 5.9802892384e+02 0.0000000000e+00 0.0000e+00 1.0000e+00
       21 -1    0    0  501  503 -0.0000000000e+00 -0.0000000000e+00 -3.6228876971e+02 3.6228876971e+02 0.0000000000e+00 0.0000e+00 1.0000e+00
        6  1    1    2  501    0 +1.8211597886e+02 -5.3211650469e+01 -2.2386747638e+02 3.4065137088e+02 1.7300000000e+02 0.0000e+00 1.0000e+00
       -6  1    1    2    0  502 -5.5840049533e+01 +4.8164154914e+01 +1.9903799026e+02 2.7383027319e+02 1.7300000000e+02 0.0000e+00 1.0000e+00
       21  1    1    2  504  503 -6.0055501408e+01 +4.7212876101e+01 +2.8721135115e+00 7.6445849823e+01 0.0000000000e+00 0.0000e+00 1.0000e+00
       21  1    1    2  505  504 -6.6220427917e+01 -4.2165380546e+01 +2.5769752673e+02 2.6939019966e+02 0.0000000000e+00 0.0000e+00 1.0000e+00
<mgrwt>
<rscale>  4 0.20838756E+03</rscale>
<asrwt>0</asrwt>
<pdfrwt beam="1">  1       21 0.92004450E-01 0.20838756E+03</pdfrwt>
<pdfrwt beam="2">  1       21 0.55736734E-01 0.20838756E+03</pdfrwt>
<totfact> 0.29873647E+03</totfact>
</mgrwt>
</event>
<event>
 6      1 +2.5196620e+02 1.79619900e+02 7.54677100e-03 1.09711200e-01
       21 -1    0    0  501  502 +0.0000000000e+00 +0.0000000000e+00 +2.9393896701e+02 2.9393896701e+02 0.0000000000e+00 0.0000e+00 -1.0000e+00
       21 -1    0    0  505  503 -0.0000000000e+00 -0.0000000000e+00 -4.7710416666e+02 4.7710416666e+02 0.0000000000e+00 0.0000e+00 -1.0000e+00
        6  1    1    2  501    0 -6.1903366516e+01 -2.1311891185e+01 -3.6261706628e+02 4.0707046104e+02 1.7300000000e+02 0.0000e+00 -1.0000e+00
       -6  1    1    2    0  503 -5.8557829354e+01 -6.2191002474e+00 +7.5533428624e+01 1.9774224492e+02 1.7300000000e+02 0.0000e+00 1.0000e+00
       21  1    1    2  504  502 +4.6381408190e+01 -7.9425881659e+00 +4.5346300361e+01 6.5349879027e+01 0.0000000000e+00 0.0000e+00 -1.0000e+00
       21  1    1    2  505  504 +7.4079787681e+01 +3.5473579598e+01 +5.8572137656e+01 1.0088054868e+02 0.0000000000e+00 0.0000e+00 -1.0000e+00
<mgrwt>
<rscale>  4 0.17961995E+03</rscale>
<asrwt>0</asrwt>
<pdfrwt beam="1">  1       21 0.45221380E-01 0.17961995E+03</pdfrwt>
<pdfrwt beam="2">  1       21 0.73400640E-01 0.17961995E+03</pdfrwt>
<totfact> 0.79003103E+03</totfact>
</mgrwt>
</event>
<event>
 6      1 +2.5196620e+02 1.82732500e+02 7.54677100e-03 1.14954000e-01
       21 -1    0    0  501  502 +0.0000000000e+00 +0.0000000000e+00 +7.0734937196e+02 7.0734937196e+02 0.0000000000e+00 0.0000e+00 -1.0000e+00
       21 -1    0    0  504  503 -0.0000000000e+00 -0.0000000000e+00 -5.6251586798e+02 5.6251586798e+02 0.0000000000e+00 0.0000e+00 -1.0000e+00
        6  1    1    2  501    0 +2.0648408782e+01 -9.7851665806e+01 -1.8207486474e+02 2.7033601621e+02 1.7300000000e+02 0.0000e+00 1.0000e+00
       -6  1    1    2    0  503 +6.5912118365e+01 +1.8697381044e+01 -2.9844556945e+02 3.5169981139e+02 1.7300000000e+02 0.0000e+00 -1.0000e+00
       21  1    1    2  504  505 -3.9401923500e+01 +3.5306877650e+01 +6.5101711705e+01 8.3888736144e+01 0.0000000000e+00 0.0000e+00 -1.0000e+00
       21  1    1    2  505  502 -4.7158603647e+01 +4.3847407113e+01 +5.6025222647e+02 5.6394067620e+02 0.0000000000e+00 0.0000e+00 -1.0000e+00
<mgrwt>
<rscale>  4 0.18273247E+03</rscale>
<asrwt>0</asrwt>
<pdfrwt beam="1">  1       21 0.10882298E+00 0.18273247E+03</pdfrwt>
<pdfrwt beam="2">  1       21 0.86540902E-01 0.18273247E+03</pdfrwt>
<totfact> 0.77906607E+02</totfact>
</mgrwt>
</event>
<event>
 6      1 +2.5196620e+02 1.78092600e+02 7.54677100e-03 9.49153200e-02
       21 -1    0    0  505  502 +0.0000000000e+00 +0.0000000000e+00 +9.0831318006e+02 9.0831318006e+02 0.0000000000e+00 0.0000e+00 1.0000e+00
       21 -1    0    0  504  503 -0.0000000000e+00 -0.0000000000e+00 -1.3370640672e+02 1.3370640672e+02 0.0000000000e+00 0.0000e+00 1.0000e+00
        6  1    1    2  501    0 +3.1309757525e+01 -1.4579971761e+01 +4.7355543977e+02 5.0534802961e+02 1.7300000000e+02 0.0000e+00 1.0000e+00
       -6  1    1    2    0  502 -1.9311767045e+01 +3.7358384976e+01 +2.8447121445e+02 3.3559121729e+02 1.7300000000e+02 0.0000e+00 -1.0000e+00
       21  1    1    2  504  501 -1.5485064272e+01 +2.2501119782e+01 -8.5284038624e+01 8.9551408984e+01 0.0000000000e+00 0.0000e+00 1.0000e+00
       21  1    1    2  505  503 +3.4870737914e+00 -4.5279532997e+01 +1.0186415775e+02 1.1152893089e+02 0.0000000000e+00 0.0000e+00 1.0000e+00
<mgrwt>
<rscale>  4 0.17809263E+03</rscale>
<asrwt>0</asrwt>
<pdfrwt beam="1">  1       21 0.13974049E+00 0.17809263E+03</pdfrwt>
<pdfrwt beam="2">  1       21 0.20570217E-01 0.17809263E+03</pdfrwt>
<totfact> 0.79651083E+03</totfact>
</mgrwt>
</event>
<event>
 6      1 +2.5196620e+02 2.15331700e+02 7.54677100e-03 1.14954000e-01
       21 -1    0    0  501  502 +0.0000000000e+00 +0.0000000000e+00 +2.0550777485e+02 2.0550777485e+02 0.0000000000e+00 0.0000e+00 -1.0000e+00
       21 -1    0    0  505  503 -0.0000000000e+00 -0.0000000000e+00 -2.2122238823e+03 2.2122238823e+03 0.0000000000e+00 0.0000e+00 -1.0000e+00
        6  1    1    2  501    0 -6.8774997605e+01 +1.6673332991e+02 -9.8130110112e+02 1.0126257229e+03 1.7300000000e+02 0.0000e+00 -1.0000e+00
       -6  1    1    2    0  503 +1.9630988484e+01 -9.9478266233e+01 -1.1970260944e+03 1.2137058012e+03 1.7300000000e+02 0.0000e+00 -1.0000e+00
       21  1    1    2  504  502 +1.3691199050e+01 -2.2945427893e+01 +7.1420209597e+01 7.6254756779e+01 0.0000000000e+00 0.0000e+00 -1.0000e+00
       21  1    1    2  505  504 +3.5452810072e+01 -4.4309635782e+01 +1.0019087844e+02 1.1514537632e+02 0.0000000000e+00 0.0000e+00 -1.0000e+00
<mgrwt>
<rscale>  4 0.21533169E+03</rscale>
<asrwt>0</asrwt>
<pdfrwt beam="1">  1       21 0.31616582E-01 0.21533169E+03</pdfrwt>
<pdfrwt beam="2">  1       21 0.34034213E+00 0.21533169E+03</pdfrwt>
<totfact> 0.18498258E+02</totfact>
</mgrwt>
</event>
<event>
 6      1 +2.5196620e+02 2.46808300e+02 7.54677100e-03 9.49153200e-02
       21 -1    0    0  504  502 +0.0000000000e+00 +0.0000000000e+00 +1.1894201470e+03 1.1894201470e+03 0.0000000000e+00 0.0000e+00 1.0000e+00
       21 -1    0    0  501  503 -0.0000000000e+00 -0.0000000000e+00 -4.9901951551e+02 4.9901951551e+02 0.0000000000e+00 0.0000e+00 1.0000e+00
        6  1    1    2  501    0 +1.6199639689e+02 +4.1202323881e+01 +4.0690148546e+02 4.7269258823e+02 1.7300000000e+02 0.0000e+00 1.0000e+00
       -6  1    1    2    0  505 -1.8524941117e+02 -7.3474831195e+00 +5.2477148334e+02 5.8282539373e+02 1.7300000000e+02 0.0000e+00 1.0000e+00
       21  1    1    2  504  503 +2.1532570786e+01 -1.0499120021e+00 -4.3545080510e+02 4.3598412538e+02 0.0000000000e+00 0.0000e+00 1.0000e+00
       21  1    1    2  505  502 +1.7204434879e+00 -3.2804928759e+01 +1.9417846777e+02 1.9693755513e+02 0.0000000000e+00 0.0000e+00 1.0000e+00
<mgrwt>
<rscale>  4 0.24680834E+03</rscale>
<asrwt>0</asrwt>
<pdfrwt beam="1">  1       21 0.18298771E+00 0.24680834E+03</pdfrwt>
<pdfrwt beam="2">  1       21 0.76772233E-01 0.24680834E+03</pdfrwt>
<totfact> 0.24633668E+02</totfact>
</mgrwt>
</event>
<event>
 6      1 +2.5196620e+02 2.95302500e+02 7.54677100e-03 1.06301000e-01
       21 -1    0    0  505  502 +0.0000000000e+00 +0.0000000000e+00 +1.4906517356e+02 1.4906517356e+02 0.0000000000e+00 0.0000e+00 1.0000e+00
       21 -1    0    0  504  503 -0.0000000000e+00 -0.0000000000e+00 -1.4292247238e+03 1.4292247238e+03 0.0000000000e+00 0.0000e+00 1.0000e+00
        6  1    1    2  501    0 -1.7567676397e+00 -1.5133705452e+01 -7.0886040150e+01 1.8757917251e+02 1.7300000000e+02 0.0000e+00 -1.0000e+00
       -6  1    1    2    0  502 -1.8959497573e+02 +2.3048955382e+02 -4.8900581901e+02 5.9843744892e+02 1.7300000000e+02 0.0000e+00 1.0000e+00
       21  1    1    2  504  501 +1.4486307546e+02 -1.6616077398e+02 -6.7688873990e+02 7.1187996154e+02 0.0000000000e+00 0.0000e+00 1.0000e+00
       21  1    1    2  505  503 +4.6488667914e+01 -4.9195074386e+01 -4.3378951144e+01 8.0393314340e+01 0.0000000000e+00 0.0000e+00 1.0000e+00
<mgrwt>
<rscale>  4 0.26018297E+03</rscale>
<asrwt>0</asrwt>
<pdfrwt beam="1">  1       21 0.22933103E-01 0.29530250E+03</pdfrwt>
<pdfrwt beam="2">  1       21 0.21988073E+00 0.29530250E+03</pdfrwt>
<totfact> 0.16410782E+03</totfact>
</mgrwt>
</event>
<event>
 6      1 +2.5196620e+02 1.86793900e+02 7.54677100e-03 1.09079000e-01
       21 -1    0    0  503  502 +0.0000000000e+00 +0.0000000000e+00 +4.5065587224e+02 4.5065587224e+02 0.0000000000e+00 0.0000e+00 1.0000e+00
       21 -1    0    0  501  503 -0.0000000000e+00 -0.0000000000e+00 -1.4010971903e+02 1.4010971903e+02 0.0000000000e+00 0.0000e+00 1.0000e+00
        6  1    1    2  501    0 +4.0407968164e+01 +5.4362769503e+01 -6.5063711435e+00 1.8590171453e+02 1.7300000000e+02 0.0000e+00 1.0000e+00
       -6  1    1    2    0  504 -5.1653140378e+01 -5.8698789220e+01 +2.1370015771e+02 2.8585022682e+02 1.7300000000e+02 0.0000e+00 1.0000e+00
       21  1    1    2  504  505 +1.0265231748e+01 +2.9314344081e+01 +3.8220462050e+01 4.9249461632e+01 0.0000000000e+00 0.0000e+00 1.0000e+00
       21  1    1    2  505  502 +9.7994046590e-01 -2.4978324365e+01 +6.5131904593e+01 6.9764188286e+01 0.0000000000e+00 0.0000e+00 1.0000e+00
<mgrwt>
<rscale>  4 0.18679386E+03</rscale>
<asrwt>0</asrwt>
<pdfrwt beam="1">  1       21 0.69331672E-01 0.18679386E+03</pdfrwt>
<pdfrwt beam="2">  1       21 0.21555342E-01 0.18679386E+03</pdfrwt>
<totfact> 0.38076683E+04</totfact>
</mgrwt>
</event>
<event>
 6      1 +2.5196620e+02 2.24821900e+02 7.54677100e-03 9.49153200e-02
       21 -1    0    0  504  502 +0.0000000000e+00 +0.0000000000e+00 +3.6034044657e+02 3.6034044657e+02 0.0000000000e+00 0.0000e+00 -1.0000e+00
       21 -1    0    0  501  503 -0.0000000000e+00 -0.0000000000e+00 -8.3127891206e+02 8.3127891206e+02 0.0000000000e+00 0.0000e+00 -1.0000e+00
        6  1    1    2  501    0 -1.2190723623e+02 +4.4720538830e+01 +1.1517145393e+02 2.4506073663e+02 1.7300000000e+02 0.0000e+00 -1.0000e+00
       -6  1    1    2    0  505 +2.4292080909e+02 -3.7648566442e+01 -2.6581019398e+02 4.0126299763e+02 1.7300000000e+02 0.0000e+00 -1.0000e+00
       21  1    1    2  504  503 -1.2249348093e+02 +1.9291052693e+01 -4.2219805866e+02 4.4003181513e+02 0.0000000000e+00 0.0000e+00 -1.0000e+00
       21  1    1    2  505  502 +1.4799080627e+00 -2.6363025082e+01 +1.0189833324e+02 1.0526380924e+02 0.0000000000e+00 0.0000e+00 -1.0000e+00
<mgrwt>
<rscale>  4 0.22482186E+03</rscale>
<asrwt>0</asrwt>
<pdfrwt beam="1">  1       21 0.55436993E-01 0.22482186E+03</pdfrwt>
<pdfrwt beam="2">  1       21 0.12788906E+00 0.22482186E+03</pdfrwt>
<totfact> 0.13408336E+03</totfact>
</mgrwt>
</event>
<event>
 6      1 +2.5196620e+02 3.30734400e+02 7.54677100e-03 9.49153200e-02
       21 -1    0    0  504  502 +0.0000000000e+00 +0.0000000000e+00 +3.2035962867e+02 3.2035962867e+02 0.0000000000e+00 0.0000e+00 -1.0000e+00
       21 -1    0    0  501  503 -0.0000000000e+00 -0.0000000000e+00 -6.1120238653e+02 6.1120238653e+02 0.0000000000e+00 0.0000e+00 -1.0000e+00
        6  1    1    2  501    0 +3.9595673534e+01 +2.8702026249e+02 +2.3916418167e+01 3.3830377400e+02 1.7300000000e+02 0.0000e+00 -1.0000e+00
       -6  1    1    2    0  505 +6.2798115583e+00 -2.8614234272e+02 -3.1617809754e+02 4.6023305585e+02 1.7300000000e+02 0.0000e+00 -1.0000e+00
       21  1    1    2  504  503 -2.8081527813e+01 +1.1935863453e+01 -6.0270695565e+01 6.7554376502e+01 0.0000000000e+00 0.0000e+00 -1.0000e+00
       21  1    1    2  505  502 -1.7793957279e+01 -1.2813783218e+01 +6.1689617075e+01 6.5470808846e+01 0.0000000000e+00 0.0000e+00 -1.0000e+00
<mgrwt>
<rscale>  4 0.33073441E+03</rscale>
<asrwt>0</asrwt>
<pdfrwt beam="1">  1       21 0.49286097E-01 0.33073441E+03</pdfrwt>
<pdfrwt beam="2">  1       21 0.94031136E-01 0.33073441E+03</pdfrwt>
<totfact> 0.34098453E+03</totfact>
</mgrwt>
</event>
<event>
 6      1 +2.5196620e+02 1.78911300e+02 7.54677100e-03 9.28652600e-02
       21 -1    0    0  505  502 +0.0000000000e+00 +0.0000000000e+00 +1.0617939550e+03 1.0617939550e+03 0.0000000000e+00 0.0000e+00 -1.0000e+00
       21 -1    0    0  501  503 -0.0000000000e+00 -0.0000000000e+00 -1.4882428487e+02 1.4882428487e+02 0.0000000000e+00 0.0000e+00 -1.0000e+00
        6  1    1    2  501    0 -5.7570954235e+01 -6.2943866500e+01 +8.0661411162e+01 2.0907321290e+02 1.7300000000e+02 0.0000e+00 -1.0000e+00
       -6  1    1    2    0  502 +2.4886655523e+01 +3.1616192434e+01 +8.9443847457e+02 9.1190356619e+02 1.7300000000e+02 0.0000e+00 -1.0000e+00
       21  1    1    2  504  503 -3.5677221136e+00 +2.5419779689e+01 -1.4458487971e+01 2.9460850547e+01 0.0000000000e+00 0.0000e+00 -1.0000e+00
       21  1    1    2  505  504 +3.6252020826e+01 +5.9078943776e+00 -4.7671727637e+01 6.0180610214e+01 0.0000000000e+00 0.0000e+00 -1.0000e+00
<mgrwt>
<rscale>  4 0.17891128E+03</rscale>
<asrwt>0</asrwt>
<pdfrwt beam="1">  1       21 0.16335291E+00 0.17891128E+03</pdfrwt>
<pdfrwt beam="2">  1       21 0.22896044E-01 0.17891128E+03</pdfrwt>
<totfact> 0.43129141E+03</totfact>
</mgrwt>
</event>
<event>
 6      1 +2.5196620e+02 2.24761500e+02 7.54677100e-03 9.49153200e-02
       21 -1    0    0  505  502 +0.0000000000e+00 +0.0000000000e+00 +2.8016822814e+02 2.8016822814e+02 0.0000000000e+00 0.0000e+00 1.0000e+00
       21 -1    0    0  501  503 -0.0000000000e+00 -0.0000000000e+00 -2.8498293336e+02 2.8498293336e+02 0.0000000000e+00 0.0000e+00 1.0000e+00
        6  1    1    2  501    0 -5.8551157293e+01 +1.4314354478e+02 -8.9779180370e+01 2.4881240657e+02 1.7300000000e+02 0.0000e+00 -1.0000e+00
       -6  1    1    2    0  502 +6.9910085370e+01 -1.0870293851e+02 +1.0088192083e+02 2.3834829730e+02 1.7300000000e+02 0.0000e+00 -1.0000e+00
       21  1    1    2  504  503 -2.9027609821e+01 -2.2601788366e+01 -3.3984796534e+01 5.0084023048e+01 0.0000000000e+00 0.0000e+00 1.0000e+00
       21  1    1    2  505  504 +1.7668681744e+01 -1.1838817912e+01 +1.8067350854e+01 2.7906434580e+01 0.0000000000e+00 0.0000e+00 -1.0000e+00
<mgrwt>
<rscale>  4 0.22476149E+03</rscale>
<asrwt>0</asrwt>
<pdfrwt beam="1">  1       21 0.43102804E-01 0.22476149E+03</pdfrwt>
<pdfrwt beam="2">  1       21 0.43843528E-01 0.22476149E+03</pdfrwt>
<totfact> 0.25418444E+04</totfact>
</mgrwt>
</event>
<event>
 6      1 +2.5196620e+02 2.08375700e+02 7.54677100e-03 1.09711200e-01
       21 -1    0    0  501  502 +0.0000000000e+00 +0.0000000000e+00 +2.6300667196e+03 2.6300667196e+03 0.0000000000e+00 0.0000e+00 -1.0000e+00
       21 -1    0    0  505  503 -0.0000000000e+00 -0.0000000000e+00 -2.3369946140e+02 2.3369946140e+02 0.0000000000e+00 0.0000e+00 1.0000e+00
        6  1    1    2  501    0 -4.8659031328e+01 -3.8367477768e+01 +6.7936965042e+00 1.8388833294e+02 1.7300000000e+02 0.0000e+00 1.0000e+00
       -6  1    1    2    0  503 +1.5963744750e+02 +7.9703857671e+01 -3.5617804698e+01 2.5106661981e+02 1.7300000000e+02 0.0000e+00 1.0000e+00
       21  1    1    2  504  502 -3.6093044106e+01 -3.0805420678e+01 +1.4140470738e+03 1.4148430332e+03 0.0000000000e+00 0.0000e+00 -1.0000e+00
       21  1    1    2  505  504 -7.4885372063e+01 -1.0530959225e+01 +1.0111442926e+03 1.0139681951e+03 0.0000000000e+00 0.0000e+00 -1.0000e+00
<mgrwt>
<rscale>  4 0.20837573E+03</rscale>
<asrwt>0</asrwt>
<pdfrwt beam="1">  1       21 0.40462563E+00 0.20837573E+03</pdfrwt>
<pdfrwt beam="2">  1       21 0.35953765E-01 0.20837573E+03</pdfrwt>
<totfact> 0.59098393E+01</totfact>
</mgrwt>
</event>
<event>
 6      1 +2.5196620e+02 1.89603100e+02 7.54677100e-03 1.07655700e-01
       21 -1    0    0  501  502 +0.0000000000e+00 +0.0000000000e+00 +3.6556570992e+02 3.6556570992e+02 0.0000000000e+00 0.0000e+00 1.0000e+00
       21 -1    0    0  502  503 -0.0000000000e+00 -0.0000000000e+00 -5.0356772021e+02 5.0356772021e+02 0.0000000000e+00 0.0000e+00 1.0000e+00
        6  1    1    2  501    0 -2.5301386223e+01 -7.8754185784e+01 +2.7860395214e+02 3.3821819004e+02 1.7300000000e+02 0.0000e+00 1.0000e+00
       -6  1    1    2    0  505 +9.8260299294e+01 -1.1403702674e+01 -2.7601035557e+02 3.4043479145e+02 1.7300000000e+02 0.0000e+00 1.0000e+00
       21  1    1    2  504  503 -4.3739496741e+01 +1.5321573381e+01 -6.7411398743e+01 8.1805811936e+01 0.0000000000e+00 0.0000e+00 -1.0000e+00
       21  1    1    2  505  504 -2.9219416330e+01 +7.4836315077e+01 -7.3184208122e+01 1.0867463671e+02 0.0000000000e+00 0.0000e+00 -1.0000e+00
<mgrwt>
<rscale>  4 0.18960308E+03</rscale>
<asrwt>0</asrwt>
<pdfrwt beam="1">  1       21 0.56240878E-01 0.18960308E+03</pdfrwt>
<pdfrwt beam="2">  1       21 0.77471957E-01 0.18960308E+03</pdfrwt>
<totfact> 0.44097356E+03</totfact>
</mgrwt>
</event>
<event>
 6      1 +2.5196620e+02 1.96995800e+02 7.54677100e-03 1.02776600e-01
       21 -1    0    0  504  502 +0.0000000000e+00 +0.0000000000e+00 +2.2762406035e+02 2.2762406035e+02 0.0000000000e+00 0.0000e+00 1.0000e+00
       21 -1    0    0  501  503 -0.0000000000e+00 -0.0000000000e+00 -4.5478842008e+02 4.5478842008e+02 0.0000000000e+00 0.0000e+00 1.0000e+00
        6  1    1    2  501    0 +9.2183563169e-01 +2.7517676663e+01 -3.2592725031e+01 1.7818349541e+02 1.7300000000e+02 0.0000e+00 1.0000e+00
       -6  1    1    2    0  502 -7.1789880760e+01 -1.4596725161e+02 +2.9580919215e+01 2.3929951171e+02 1.7300000000e+02 0.0000e+00 1.0000e+00
       21  1    1    2  504  505 +4.2829603755e+00 +3.0695127974e+01 -4.5784704429e+01 5.5288098092e+01 0.0000000000e+00 0.0000e+00 -1.0000e+00
       21  1    1    2  505  503 +6.6585084753e+01 +8.7754446973e+01 -1.7836784949e+02 2.0964137523e+02 0.0000000000e+00 0.0000e+00 1.0000e+00
<mgrwt>
<rscale>  4 0.19699583E+03</rscale>
<asrwt>0</asrwt>
<pdfrwt beam="1">  1       21 0.35019086E-01 0.19699583E+03</pdfrwt>
<pdfrwt beam="2">  1       21 0.69967449E-01 0.19699583E+03</pdfrwt>
<totfact> 0.14539809E+04</totfact>
</mgrwt>
</event>
<event>
 6      1 +2.5196620e+02 1.94088200e+02 7.54677100e-03 1.06301000e-01
       21 -1    0    0  504  502 +0.0000000000e+00 +0.0000000000e+00 +1.4819439388e+03 1.4819439388e+03 0.0000000000e+00 0.0000e+00 -1.0000e+00
       21 -1    0    0  501  503 -0.0000000000e+00 -0.0000000000e+00 -3.9314114576e+02 3.9314114576e+02 0.0000000000e+00 0.0000e+00 -1.0000e+00
        6  1    1    2  501    0 -2.3619414913e+01 -2.4457159756e+01 -1.0001629078e+02 2.0270246137e+02 1.7300000000e+02 0.0000e+00 -1.0000e+00
       -6  1    1    2    0  505 +2.1450034801e+01 -6.3447199984e-01 +4.8564378553e+02 5.1598390766e+02 1.7300000000e+02 0.0000e+00 -1.0000e+00
       21  1    1    2  504  503 -8.4722635620e+01 +4.5821642096e+01 -2.1410793522e+02 2.3477596937e+02 0.0000000000e+00 0.0000e+00 -1.0000e+00
       21  1    1    2  505  502 +8.6892015732e+01 -2.0730010341e+01 +9.1728323347e+02 9.2162274610e+02 0.0000000000e+00 0.0000e+00 -1.0000e+00
<mgrwt>
<rscale>  4 0.19408817E+03</rscale>
<asrwt>0</asrwt>
<pdfrwt beam="1">  1       21 0.22799137E+00 0.19408817E+03</pdfrwt>
<pdfrwt beam="2">  1       21 0.60483254E-01 0.19408817E+03</pdfrwt>
<totfact> 0.22860518E+02</totfact>
</mgrwt>
</event>
<event>
 6      1 +2.5196620e+02 1.80309100e+02 7.54677100e-03 1.06301000e-01
       21 -1    0    0  503  502 +0.0000000000e+00 +0.0000000000e+00 +1.2708945589e+02 1.2708945589e+02 0.0000000000e+00 0.0000e+00 1.0000e+00
       21 -1    0    0  504  503 -0.0000000000e+00 -0.0000000000e+00 -1.2096819528e+03 1.2096819528e+03 0.0000000000e+00 0.0000e+00 1.0000e+00
        6  1    1    2  501    0 +1.7257454067e+01 -2.5904419432e+01 -6.4980901774e+02 6.7316388659e+02 1.7300000000e+02 0.0000e+00 1.0000e+00
       -6  1    1    2    0  505 -4.7203181386e+01 +7.0747261864e+01 -2.4822346929e+02 3.1428841229e+02 1.7300000000e+02 0.0000e+00 -1.0000e+00
       21  1    1    2  504  501 -2.6858218380e+01 -2.4338969252e+01 -2.5441180120e+02 2.5698076564e+02 0.0000000000e+00 0.0000e+00 1.0000e+00
       21  1    1    2  505  502 +5.6803945699e+01 -2.0503873179e+01 +6.9851791292e+01 9.2338344197e+01 0.0000000000e+00 0.0000e+00 1.0000e+00
<mgrwt>
<rscale>  4 0.18030909E+03</rscale>
<asrwt>0</asrwt>
<pdfrwt beam="1">  1       21 0.19552223E-01 0.18030909E+03</pdfrwt>
<pdfrwt beam="2">  1       21 0.18610492E+00 0.18030909E+03</pdfrwt>
<totfact> 0.40326185E+03</totfact>
</mgrwt>
</event>
<event>
 6      1 +2.5196620e+02 1.91562400e+02 7.54677100e-03 9.49153200e-02
       21 -1    0    0  505  502 +0.0000000000e+00 +0.0000000000e+00 +4.0836693321e+01 4.0836693321e+01 0.0000000000e+00 0.0000e+00 1.0000e+00
       21 -1    0    0  501  503 -0.0000000000e+00 -0.0000000000e+00 -1.4992929046e+03 1.4992929046e+03 0.0000000000e+00 0.0000e+00 1.0000e+00
        6  1    1    2  501    0 +1.2760472799e+01 -3.8970044360e+01 -4.6996169112e+02 5.0246839218e+02 1.7300000000e+02 0.0000e+00 1.0000e+00
       -6  1    1    2    0  502 -9.3240090345e+01 +8.1083662669e+01 -7.5593827871e+02 7.8526425872e+02 1.7300000000e+02 0.0000e+00 1.0000e+00
       21  1    1    2  504  503 +2.7139286487e+01 -1.0867887910e+01 -1.2469999849e+02 1.2808099579e+02 0.0000000000e+00 0.0000e+00 1.0000e+00
       21  1    1    2  505  504 +5.3340331059e+01 -3.1245730399e+01 -1.0785624296e+02 1.2431595124e+02 0.0000000000e+00 0.0000e+00 1.0000e+00
<mgrwt>
<rscale>  4 0.19156244E+03</rscale>
<asrwt>0</asrwt>
<pdfrwt beam="1">  1       21 0.62825673E-02 0.19156244E+03</pdfrwt>
<pdfrwt beam="2">  1       21 0.23066048E+00 0.19156244E+03</pdfrwt>
<totfact> 0.15805516E+04</totfact>
</mgrwt>
</event>
<event>
 6      1 +2.5196620e+02 1.86273300e+02 7.54677100e-03 1.14954000e-01
       21 -1    0    0  505  502 +0.0000000000e+00 +0.0000000000e+00 +1.6832120284e+03 1.6832120284e+03 0.0000000000e+00 0.0000e+00 1.0000e+00
       21 -1    0    0  502  503 -0.0000000000e+00 -0.0000000000e+00 -7.1347911517e+01 7.1347911517e+01 0.0000000000e+00 0.0000e+00 1.0000e+00
        6  1    1    2  501    0 -5.7832936318e+01 -1.4556043138e+01 +9.1452278817e+01 2.0457039428e+02 1.7300000000e+02 0.0000e+00 1.0000e+00
       -6  1    1    2    0  503 +1.2687706348e+02 +1.5855985607e+01 +9.0027803979e+02 9.2562343879e+02 1.7300000000e+02 0.0000e+00 1.0000e+00
       21  1    1    2  504  501 -2.2595888335e+01 -7.6988782619e+00 +1.4837233017e+02 1.5028038880e+02 0.0000000000e+00 0.0000e+00 -1.0000e+00
       21  1    1    2  505  504 -4.6448238825e+01 +6.3989357925e+00 +4.7176146812e+02 4.7408571806e+02 0.0000000000e+00 0.0000e+00 1.0000e+00
<mgrwt>
<rscale>  4 0.18627325E+03</rscale>
<asrwt>0</asrwt>
<pdfrwt beam="1">  1       21 0.25895567E+00 0.18627325E+03</pdfrwt>
<pdfrwt beam="2">  1       21 0.10976603E-01 0.18627325E+03</pdfrwt>
<totfact> 0.40825166E+03</totfact>
</mgrwt>
</event>
<event>
 6      1 +2.5196620e+02 1.98045600e+02 7.54677100e-03 1.07655700e-01
       21 -1    0    0  501  502 +0.0000000000e+00 +0.0000000000e+00 +4.4833676103e+02 4.4833676103e+02 0.0000000000e+00 0.0000e+00 1.0000e+00
       21 -1    0    0  502  503 -0.0000000000e+00 -0.0000000000e+00 -2.5569924593e+02 2.5569924593e+02 0.0000000000e+00 0.0000e+00 -1.0000e+00
        6  1    1    2  501    0 -6.1702647504e+01 -1.0070142802e+02 +1.0414466643e+01 2.0972709751e+02 1.7300000000e+02 0.0000e+00 -1.0000e+00
       -6  1    1    2    0  505 +8.5745221477e+01 +3.8890935210e+01 +2.6975477030e+02 3.3400805971e+02 1.7300000000e+02 0.0000e+00 1.0000e+00
       21  1    1    2  504  503 -2.9688954878e+01 +9.8465344160e-02 -9.3446483406e+01 9.8049421203e+01 0.0000000000e+00 0.0000e+00 -1.0000e+00
       21  1    1    2  505  504 +5.6463809041e+00 +6.1712027464e+01 +5.9147615555e+00 6.2251428541e+01 0.0000000000e+00 0.0000e+00 -1.0000e+00
<mgrwt>
<rscale>  4 0.19804563E+03</rscale>
<asrwt>0</asrwt>
<pdfrwt beam="1">  1       21 0.68974886E-01 0.19804563E+03</pdfrwt>
<pdfrwt beam="2">  1       21 0.39338346E-01 0.19804563E+03</pdfrwt>
<totfact> 0.11881309E+04</totfact>
</mgrwt>
</event>
<event>
 6      1 +2.5196620e+02 1.78980700e+02 7.54677100e-03 9.49153200e-02
       21 -1    0    0  505  502 +0.0000000000e+00 +0.0000000000e+00 +8.5524005170e+02 8.5524005170e+02 0.0000000000e+00 0.0000e+00 -1.0000e+00
       21 -1    0    0  501  503 -0.0000000000e+00 -0.0000000000e+00 -1.8870565123e+02 1.8870565123e+02 0.0000000000e+00 0.0000e+00 -1.0000e+00
        6  1    1    2  501    0 -2.5025960516e+01 -5.8033966201e+01 +4.8961765847e+02 5.2311441523e+02 1.7300000000e+02 0.0000e+00 -1.0000e+00
       -6  1    1    2    0  502 +4.1618398550e+01 +4.6683185228e+00 +3.6310082016e+01 1.8166261683e+02 1.7300000000e+02 0.0000e+00 -1.0000e+00
       21  1    1    2  504  503 -4.1711017152e+00 +2.2561061757e+01 -9.6783676249e+01 9.9465971997e+01 0.0000000000e+00 0.0000e+00 -1.0000e+00
       21  1    1    2  505  504 -1.2421336319e+01 +3.0804585921e+01 +2.3739033624e+02 2.3970269888e+02 0.0000000000e+00 0.0000e+00 1.0000e+00
<mgrwt>
<rscale>  4 0.17898065E+03</rscale>
<asrwt>0</asrwt>
<pdfrwt beam="1">  1       21 0.13157539E+00 0.17898065E+03</pdfrwt>
<pdfrwt beam="2">  1       21 0.29031639E-01 0.17898065E+03</pdfrwt>
<totfact> 0.48177684E+03</totfact>
</mgrwt>
</event>
<event>
 6      1 +2.5196620e+02 1.95114000e+02 7.54677100e-03 1.09079000e-01
       21 -1    0    0  505  502 +0.0000000000e+00 +0.0000000000e+00 +2.5112713684e+02 2.5112713684e+02 0.0000000000e+00 0.0000e+00 -1.0000e+00
       21 -1    0    0  501  503 -0.0000000000e+00 -0.0000000000e+00 -3.7278716473e+02 3.7278716473e+02 0.0000000000e+00 0.0000e+00 -1.0000e+00
        6  1    1    2  501    0 +3.7241162862e+01 -8.8944504722e+01 -2.4183610708e+02 3.1258875830e+02 1.7300000000e+02 0.0000e+00 -1.0000e+00
       -6  1    1    2    0  504 -3.9299839752e+01 +6.0849285588e+01 +2.4166018605e+01 1.8910343576e+02 1.7300000000e+02 0.0000e+00 -1.0000e+00
       21  1    1    2  504  502 +3.3739940311e+01 +1.2645352322e+00 +4.8973694085e+01 5.9484496584e+01 0.0000000000e+00 0.0000e+00 -1.0000e+00
       21  1    1    2  505  503 -3.1681263421e+01 +2.6830683902e+01 +4.7036366493e+01 6.2737610916e+01 0.0000000000e+00 0.0000e+00 1.0000e+00
<mgrwt>
<rscale>  4 0.19511398E+03</rscale>
<asrwt>0</asrwt>
<pdfrwt beam="1">  1       21 0.38634944E-01 0.19511398E+03</pdfrwt>
<pdfrwt beam="2">  1       21 0.57351871E-01 0.19511398E+03</pdfrwt>
<totfact> 0.18409318E+04</totfact>
</mgrwt>
</event>
<event>
 6      1 +2.5196620e+02 1.75574000e+02 7.54677100e-03 1.13287100e-01
       21 -1    0    0  504  502 +0.0000000000e+00 +0.0000000000e+00 +1.2826307177e+03 1.2826307177e+03 0.0000000000e+00 0.0000e+00 1.0000e+00
       21 -1    0    0  505  503 -0.0000000000e+00 -0.0000000000e+00 -9.6765963386e+01 9.6765963386e+01 0.0000000000e+00 0.0000e+00 1.0000e+00
        6  1    1    2  501    0 +1.0748587221e+02 -1.7518646464e+01 +1.4149405141e+02 2.4861553105e+02 1.7300000000e+02 0.0000e+00 -1.0000e+00
       -6  1    1    2    0  503 +6.8260805927e+01 +1.7646708479e+01 +4.9739675635e+02 5.3132238535e+02 1.7300000000e+02 0.0000e+00 1.0000e+00
       21  1    1    2  504  501 -1.5286814823e+02 -1.9496459375e+01 +2.0648348342e+02 2.5765133727e+02 0.0000000000e+00 0.0000e+00 1.0000e+00
       21  1    1    2  505  502 -2.2878529904e+01 +1.9368397360e+01 +3.4049046310e+02 3.4180742737e+02 0.0000000000e+00 0.0000e+00 -1.0000e+00
<mgrwt>
<rscale>  4 0.17557397E+03</rscale>
<asrwt>0</asrwt>
<pdfrwt beam="1">  1       21 0.19732779E+00 0.17557397E+03</pdfrwt>
<pdfrwt beam="2">  1       21 0.14887072E-01 0.17557397E+03</pdfrwt>
<totfact> 0.56457288E+03</totfact>
</mgrwt>
</event>
<event>
 6      1 +2.5196620e+02 2.96813500e+02 7.54677100e-03 1.16321900e-01
       21 -1    0    0  505  502 +0.0000000000e+00 +0.0000000000e+00 +6.6823460131e+02 6.6823460131e+02 0.0000000000e+00 0.0000e+00 -1.0000e+00
       21 -1    0    0  504  503 -0.0000000000e+00 -0.0000000000e+00 -4.3219782345e+02 4.3219782345e+02 0.0000000000e+00 0.0000e+00 -1.0000e+00
        6  1    1    2  501    0 +2.1508493087e+02 +1.1006391860e+01 +2.1165524254e+02 3.4800806003e+02 1.7300000000e+02 0.0000e+00 -1.0000e+00
       -6  1    1    2    0  502 -2.6671555809e+02 +7.4476033747e+00 +3.1212290262e+02 4.4558092650e+02 1.7300000000e+02 0.0000e+00 -1.0000e+00
       21  1    1    2  504  501 +3.4404770565e+01 +1.4281594525e+01 -2.5418365364e+02 2.5689877765e+02 0.0000000000e+00 0.0000e+00 -1.0000e+00
       21  1    1    2  505  503 +1.7225856651e+01 -3.2735589760e+01 -3.3557713654e+01 4.9944660575e+01 0.0000000000e+00 0.0000e+00 -1.0000e+00
<mgrwt>
<rscale>  4 0.29681353E+03</rscale>
<asrwt>0</asrwt>
<pdfrwt beam="1">  1       21 0.10280532E+00 0.29681353E+03</pdfrwt>
<pdfrwt beam="2">  1       21 0.66491973E-01 0.29681353E+03</pdfrwt>
<totfact> 0.14708776E+03</totfact>
</mgrwt>
</event>
<event>
 6      1 +2.5196620e+02 1.91165100e+02 7.54677100e-03 1.07655700e-01
       21 -1    0    0  501  502 +0.0000000000e+00 +0.0000000000e+00 +2.4698660750e+02 2.4698660750e+02 0.0000000000e+00 0.0000e+00 -1.0000e+00
       21 -1    0    0  504  503 -0.0000000000e+00 -0.0000000000e+00 -7.7848578101e+02 7.7848578101e+02 0.0000000000e+00 0.0000e+00 -1.0000e+00
        6  1    1    2  501    0 +1.2834165244e+02 -1.4328755526e+01 -1.6224492814e+02 2.7005427175e+02 1.7300000000e+02 0.0000e+00 -1.0000e+00
       -6  1    1    2    0  505 +3.0615264216e+01 +1.4476924894e+01 +4.9551943440e+01 1.8311545772e+02 1.7300000000e+02 0.0000e+00 1.0000e+00
       21  1    1    2  504  502 +3.1994456863e+00 -2.6332154886e+01 -4.0673920570e+02 4.0760323881e+02 0.0000000000e+00 0.0000e+00 -1.0000e+00
       21  1    1    2  505  503 -1.6215636234e+02 +2.6183985518e+01 -1.2066983107e+01 1.6469942024e+02 0.0000000000e+00 0.0000e+00 -1.0000e+00
<mgrwt>
<rscale>  4 0.19116511E+03</rscale>
<asrwt>0</asrwt>
<pdfrwt beam="1">  1       21 0.37997940E-01 0.19116511E+03</pdfrwt>
<pdfrwt beam="2">  1       21 0.11976704E+00 0.19116511E+03</pdfrwt>
<totfact> 0.35490282E+03</totfact>
</mgrwt>
</event>
<event>
 6      1 +2.5196620e+02 2.57105100e+02 7.54677100e-03 1.16558800e-01
       21 -1    0    0  505  502 +0.0000000000e+00 +0.0000000000e+00 +3.1614200311e+02 3.1614200311e+02 0.0000000000e+00 0.0000e+00 1.0000e+00
       21 -1    0    0  504  503 -0.0000000000e+00 -0.0000000000e+00 -7.2393960444e+02 7.2393960444e+02 0.0000000000e+00 0.0000e+00 -1.0000e+00
        6  1    1    2  501    0 +9.7484174124e+01 -1.3493110777e+02 +6.7577479341e+01 2.4940987102e+02 1.7300000000e+02 0.0000e+00 1.0000e+00
       -6  1    1    2    0  502 -1.2599008253e+02 +1.6126489094e+02 -5.7055770522e+02 6.3035304468e+02 1.7300000000e+02 0.0000e+00 -1.0000e+00
       21  1    1    2  504  501 -1.4900407413e+01 -2.7224586332e+01 -2.0205434898e+01 3.7033226182e+01 0.0000000000e+00 0.0000e+00 -1.0000e+00
       21  1    1    2  505  503 +4.3406315816e+01 +8.9080315597e-01 +1.1538805944e+02 1.2328546567e+02 0.0000000000e+00 0.0000e+00 1.0000e+00
<mgrwt>
<rscale>  4 0.25710506E+03</rscale>
<asrwt>0</asrwt>
<pdfrwt beam="1">  1       21 0.48637231E-01 0.25710506E+03</pdfrwt>
<pdfrwt beam="2">  1       21 0.11137532E+00 0.25710506E+03</pdfrwt>
<totfact> 0.24311197E+03</totfact>
</mgrwt>
</event>
<event>
 6      1 +2.5196620e+02 1.79456200e+02 7.54677100e-03 1.13287100e-01
       21 -1    0    0  505  502 +0.0000000000e+00 +0.0000000000e+00 +4.8646139699e+02 4.8646139699e+02 0.0000000000e+00 0.0000e+00 -1.0000e+00
       21 -1    0    0  502  503 -0.0000000000e+00 -0.0000000000e+00 -1.2473054834e+02 1.2473054834e+02 0.0000000000e+00 0.0000e+00 1.0000e+00
        6  1    1    2  501    0 +4.7491109771e+01 +4.7141691086e+00 +2.5143042013e+02 3.0890756719e+02 1.7300000000e+02 0.0000e+00 -1.0000e+00
       -6  1    1    2    0  503 -4.4337585586e+01 +3.8830276865e+01 +1.2129603525e+02 2.1935209154e+02 1.7300000000e+02 0.0000e+00 1.0000e+00
       21  1    1    2  504  501 +2.6058390766e+01 -3.6987729886e+00 +1.1405371038e+01 2.8684545306e+01 0.0000000000e+00 0.0000e+00 1.0000e+00
       21  1    1    2  505  504 -2.9211914951e+01 -3.9845672985e+01 -2.2400977768e+01 5.4247741296e+01 0.0000000000e+00 0.0000e+00 1.0000e+00
<mgrwt>
<rscale>  4 0.17945619E+03</rscale>
<asrwt>0</asrwt>
<pdfrwt beam="1">  1       21 0.74840214E-01 0.17945619E+03</pdfrwt>
<pdfrwt beam="2">  1       21 0.19189315E-01 0.17945619E+03</pdfrwt>
<totfact> 0.40102072E+04</totfact>
</mgrwt>
</event>
<event>
 6      1 +2.5196620e+02 1.84134100e+02 7.54677100e-03 1.02776600e-01
       21 -1    0    0  504  502 +0.0000000000e+00 +0.0000000000e+00 +1.3185395114e+03 1.3185395114e+03 0.0000000000e+00 0.0000e+00 -1.0000e+00
       21 -1    0    0  501  503 -0.0000000000e+00 -0.0000000000e+00 -9.6977250629e+01 9.6977250629e+01 0.0000000000e+00 0.0000e+00 -1.0000e+00
        6  1    1    2  501    0 -1.7383864522e+02 +8.6172328396e+01 +2.7935404524e+02 3.8159301271e+02 1.7300000000e+02 0.0000e+00 -1.0000e+00
       -6  1    1    2    0  502 +4.0575918438e+00 -1.9973297046e+01 +6.8657087408e+02 7.0832475729e+02 1.7300000000e+02 0.0000e+00 -1.0000e+00
       21  1    1    2  504  505 +3.6100620886e+01 +3.6972964205e+00 +1.1033788145e+02 1.1615236938e+02 0.0000000000e+00 0.0000e+00 1.0000e+00
       21  1    1    2  505  503 +1.3368043249e+02 -6.9896327770e+01 +1.4529945998e+02 2.0944662264e+02 0.0000000000e+00 0.0000e+00 -1.0000e+00
<mgrwt>
<rscale>  4 0.18413408E+03</rscale>
<asrwt>0</asrwt>
<pdfrwt beam="1">  1       21 0.20285222E+00 0.18413408E+03</pdfrwt>
<pdfrwt beam="2">  1       21 0.14919578E-01 0.18413408E+03</pdfrwt>
<totfact> 0.51413777E+03</totfact>
</mgrwt>
</event>
<event>
 6      1 +2.5196620e+02 2.06775000e+02 7.54677100e-03 1.14954000e-01
       21 -1    0    0  501  502 +0.0000000000e+00 +0.0000000000e+00 +1.8864348020e+03 1.8864348020e+03 0.0000000000e+00 0.0000e+00 1.0000e+00
       21 -1    0    0  504  503 -0.0000000000e+00 -0.0000000000e+00 -1.1064998216e+02 1.1064998216e+02 0.0000000000e+00 0.0000e+00 1.0000e+00
        6  1    1    2  501    0 +9.8260424653e+01 +7.3231757584e+01 +7.3963909799e+01 2.2453877466e+02 1.7300000000e+02 0.0000e+00 1.0000e+00
       -6  1    1    2    0  503 -7.0950039842e+01 -6.2337968911e+01 +2.7392847020e+02 3.3746960945e+02 1.7300000000e+02 0.0000e+00 -1.0000e+00
       21  1    1    2  504  505 -7.2268428765e+01 +3.3617249161e+01 +7.3949656599e+02 7.4377954822e+02 0.0000000000e+00 0.0000e+00 1.0000e+00
       21  1    1    2  505  502 +4.4958043954e+01 -4.4511037834e+01 +6.8839587382e+02 6.9129685179e+02 0.0000000000e+00 0.0000e+00 1.0000e+00
<mgrwt>
<rscale>  4 0.20677497E+03</rscale>
<asrwt>0</asrwt>
<pdfrwt beam="1">  1       21 0.29022071E+00 0.20677497E+03</pdfrwt>
<pdfrwt beam="2">  1       21 0.17023076E-01 0.20677497E+03</pdfrwt>
<totfact> 0.11877897E+03</totfact>
</mgrwt>
</event>
<event>
 6      1 +2.5196620e+02 3.09886300e+02 7.54677100e-03 1.09079000e-01
       21 -1    0    0  501  502 +0.0000000000e+00 +0.0000000000e+00 +5.0973927261e+02 5.0973927261e+02 0.0000000000e+00 0.0000e+00 -1.0000e+00
       21 -1    0    0  505  503 -0.0000000000e+00 -0.0000000000e+00 -3.9240471007e+02 3.9240471007e+02 0.0000000000e+00 0.0000e+00 -1.0000e+00
        6  1    1    2  501    0 -3.3239857156e+02 -9.8206914802e+01 +1.5041478866e+02 4.1555627433e+02 1.7300000000e+02 0.0000e+00 -1.0000e+00
       -6  1    1    2    0  504 +2.2729044373e+02 -4.0455699280e+01 -7.3726913633e+01 2.9776209834e+02 1.7300000000e+02 0.0000e+00 -1.0000e+00
       21  1    1    2  504  503 +5.1572622048e+01 +7.4483348729e+01 -9.9289116690e+00 9.1137741192e+01 0.0000000000e+00 0.0000e+00 -1.0000e+00
       21  1    1    2  505  502 +5.3535505780e+01 +6.4179265353e+01 +5.0575599194e+01 9.7687868819e+01 0.0000000000e+00 0.0000e+00 -1.0000e+00
<mgrwt>
<rscale>  4 0.30988629E+03</rscale>
<asrwt>0</asrwt>
<pdfrwt beam="1">  1       21 0.78421427E-01 0.30988629E+03</pdfrwt>
<pdfrwt beam="2">  1       21 0.60369955E-01 0.30988629E+03</pdfrwt>
<totfact> 0.34045402E+03</totfact>
</mgrwt>
</event>
<event>
 6      1 +2.5196620e+02 1.85773700e+02 7.54677100e-03 1.06301000e-01
       21 -1    0    0  505  502 +0.0000000000e+00 +0.0000000000e+00 +6.2830600708e+02 6.2830600708e+02 0.0000000000e+00 0.0000e+00 -1.0000e+00
       21 -1    0    0  501  503 -0.0000000000e+00 -0.0000000000e+00 -1.6678102874e+03 1.6678102874e+03 0.0000000000e+00 0.0000e+00 -1.0000e+00
        6  1    1    2  501    0 -6.4194325857e+01 -8.2111508326e+00 -9.4967647976e+01 2.0769253389e+02 1.7300000000e+02 0.0000e+00 -1.0000e+00
       -6  1    1    2    0  502 +6.3937146263e+01 +5.0037785321e+01 +2.4542084800e+02 3.1105004624e+02 1.7300000000e+02 0.0000e+00 -1.0000e+00
       21  1    1    2  504  503 +4.2016279312e+00 -2.0167804285e+01 -1.4831814275e+03 1.4833244894e+03 0.0000000000e+00 0.0000e+00 -1.0000e+00
       21  1    1    2  505  504 -3.9444483368e+00 -2.1658830203e+01 +2.9322394707e+02 2.9404922502e+02 0.0000000000e+00 0.0000e+00 -1.0000e+00
<mgrwt>
<rscale>  4 0.18577372E+03</rscale>
<asrwt>0</asrwt>
<pdfrwt beam="1">  1       21 0.96662462E-01 0.18577372E+03</pdfrwt>
<pdfrwt beam="2">  1       21 0.25658620E+00 0.18577372E+03</pdfrwt>
<totfact> 0.54740491E+01</totfact>
</mgrwt>
</event>
<event>
 6      1 +2.5196620e+02 4.39644400e+02 7.54677100e-03 1.02776600e-01
       21 -1    0    0  501  502 +0.0000000000e+00 +0.0000000000e+00 +1.0287316913e+03 1.0287316913e+03 0.0000000000e+00 0.0000e+00 -1.0000e+00
       21 -1    0    0  502  503 -0.0000000000e+00 -0.0000000000e+00 -7.2468377920e+02 7.2468377920e+02 0.0000000000e+00 0.0000e+00 -1.0000e+00
        6  1    1    2  501    0 -2.5315210060e+02 -2.2911227811e+02 +2.7958180926e+02 4.7399726802e+02 1.7300000000e+02 0.0000e+00 -1.0000e+00
       -6  1    1    2    0  504 +5.5404215770e+00 -1.0751723099e+02 +5.5868775631e+02 5.9468618639e+02 1.7300000000e+02 0.0000e+00 -1.0000e+00
       21  1    1    2  504  505 +1.1474260419e+02 +2.3259357848e+02 -3.1288740826e+02 4.0640394709e+02 0.0000000000e+00 0.0000e+00 -1.0000e+00
       21  1    1    2  505  503 +1.3286907484e+02 +1.0403593062e+02 -2.2133424520e+02 2.7832806902e+02 0.0000000000e+00 0.0000e+00 -1.0000e+00
<mgrwt>
<rscale>  4 0.36275037E+03</rscale>
<asrwt>0</asrwt>
<pdfrwt beam="1">  1       21 0.15826641E+00 0.43964439E+03</pdfrwt>
<pdfrwt beam="2">  1       21 0.11148981E+00 0.43964439E+03</pdfrwt>
<totfact> 0.13301633E+02</totfact>
</mgrwt>
</event>
<event>
 6      1 +2.5196620e+02 2.42773900e+02 7.54677100e-03 1.13287100e-01
       21 -1    0    0  505  502 +0.0000000000e+00 +0.0000000000e+00 +3.8719848114e+02 3.8719848114e+02 0.0000000000e+00 0.0000e+00 -1.0000e+00
       21 -1    0    0  502  503 -0.0000000000e+00 -0.0000000000e+00 -4.1990950753e+02 4.1990950753e+02 0.0000000000e+00 0.0000e+00 -1.0000e+00
        6  1    1    2  501    0 -9.5401689783e+01 -1.1318529304e+02 +1.3067498530e+02 2.6252113202e+02 1.7300000000e+02 0.0000e+00 -1.0000e+00
       -6  1    1    2    0  503 +9.1882048906e+01 +1.4987067175e+02 -2.8968997428e+02 3.8046394095e+02 1.7300000000e+02 0.0000e+00 -1.0000e+00
       21  1    1    2  504  501 -1.5501680269e+01 -2.7297652891e+01 -4.4088481573e+00 3.1700187485e+01 0.0000000000e+00 0.0000e+00 -1.0000e+00
       21  1    1    2  505  504 +1.9021321146e+01 -9.3877258210e+00 +1.3071281075e+02 1.3242272822e+02 0.0000000000e+00 0.0000e+00 1.0000e+00
<mgrwt>
<rscale>  4 0.24277392E+03</rscale>
<asrwt>0</asrwt>
<pdfrwt beam="1">  1       21 0.59568997E-01 0.24277392E+03</pdfrwt>
<pdfrwt beam="2">  1       21 0.64601462E-01 0.24277392E+03</pdfrwt>
<totfact> 0.56123482E+03</totfact>
</mgrwt>
</event>
<event>
 6      1 +2.5196620e+02 2.02660500e+02 7.54677100e-03 9.49153200e-02
       21 -1    0    0  505  502 +0.0000000000e+00 +0.0000000000e+00 +3.9193956104e+02 3.9193956104e+02 0.0000000000e+00 0.0000e+00 1.0000e+00
       21 -1    0    0  501  503 -0.0000000000e+00 -0.0000000000e+00 -6.1362630609e+02 6.1362630609e+02 0.0000000000e+00 0.0000e+00 1.0000e+00
        6  1    1    2  501    0 -6.4513103385e+01 -3.4606015352e+01 -3.3637640822e+01 1.9084026747e+02 1.7300000000e+02 0.0000e+00 -1.0000e+00
       -6  1    1    2    0  502 +1.3739379165e+02 +2.2624873762e+01 +1.3362080400e+02 2.5917650001e+02 1.7300000000e+02 0.0000e+00 1.0000e+00
       21  1    1    2  504  503 -4.6936071647e+01 +2.5708807906e+01 -4.3510201990e+02 4.3838077666e+02 0.0000000000e+00 0.0000e+00 1.0000e+00
       21  1    1    2  505  504 -2.5944616621e+01 -1.3727666315e+01 +1.1343211167e+02 1.1716832299e+02 0.0000000000e+00 0.0000e+00 1.0000e+00
<mgrwt>
<rscale>  4 0.20266047E+03</rscale>
<asrwt>0</asrwt>
<pdfrwt beam="1">  1       21 0.60298394E-01 0.20266047E+03</pdfrwt>
<pdfrwt beam="2">  1       21 0.94404047E-01 0.20266047E+03</pdfrwt>
<totfact> 0.23889937E+03</totfact>
</mgrwt>
</event>
<event>
 6      1 +2.5196620e+02 3.26409800e+02 7.54677100e-03 9.49153200e-02
       21 -1    0    0  505  502 +0.0000000000e+00 +0.0000000000e+00 +5.5199440433e+02 5.5199440433e+02 0.0000000000e+00 0.0000e+00 -1.0000e+00
       21 -1    0    0  504  503 -0.0000000000e+00 -0.0000000000e+00 -1.1707344418e+03 1.1707344418e+03 0.0000000000e+00 0.0000e+00 1.0000e+00
        6  1    1    2  501    0 -5.0736886891e+01 -2.2731367709e+02 +2.9877957580e+02 4.1646605432e+02 1.7300000000e+02 0.0000e+00 -1.0000e+00
       -6  1    1    2    0  502 -3.1650258651e+01 -8.3104743153e+00 +6.8838762782e+01 1.8904649724e+02 1.7300000000e+02 0.0000e+00 -1.0000e+00
       21  1    1    2  504  501 +8.4885128516e+01 +2.6590208567e+02 -1.0282537751e+03 1.0654647953e+03 0.0000000000e+00 0.0000e+00 1.0000e+00
       21  1    1    2  505  503 -2.4979829742e+00 -3.0277934262e+01 +4.1895398963e+01 5.1751499267e+01 0.0000000000e+00 0.0000e+00 1.0000e+00
<mgrwt>
<rscale>  4 0.27998948E+03</rscale>
<asrwt>0</asrwt>
<pdfrwt beam="1">  1       21 0.84922217E-01 0.32640980E+03</pdfrwt>
<pdfrwt beam="2">  1       21 0.18011299E+00 0.32640980E+03</pdfrwt>
<totfact> 0.19097760E+02</totfact>
</mgrwt>
</event>
<event>
 6      1 +2.5196620e+02 2.02652800e+02 7.54677100e-03 9.49153200e-02
       21 -1    0    0  503  502 +0.0000000000e+00 +0.0000000000e+00 +9.0627019849e+02 9.0627019849e+02 0.0000000000e+00 0.0000e+00 1.0000e+00
       21 -1    0    0  504  503 -0.0000000000e+00 -0.0000000000e+00 -3.5261769457e+02 3.5261769457e+02 0.0000000000e+00 0.0000e+00 1.0000e+00
        6  1    1    2  501    0 +3.2638276543e+01 -3.7100481164e+01 +2.3236771880e+02 2.9388000875e+02 1.7300000000e+02 0.0000e+00 -1.0000e+00
       -6  1    1    2    0  505 +1.7633160086e+01 +1.0881136426e+02 -2.0303998216e+02 2.8862618676e+02 1.7300000000e+02 0.0000e+00 1.0000e+00
       21  1    1    2  504  501 -7.7005916773e+01 +1.7828298501e+00 -5.3182853299e+01 9.3602914406e+01 0.0000000000e+00 0.0000e+00 1.0000e+00
       21  1    1    2  505  502 +2.6734480144e+01 -7.3493712950e+01 +5.7750762057e+02 5.8277878315e+02 0.0000000000e+00 0.0000e+00 1.0000e+00
<mgrwt>
<rscale>  4 0.20265280E+03</rscale>
<asrwt>0</asrwt>
<pdfrwt beam="1">  1       21 0.13942618E+00 0.20265280E+03</pdfrwt>
<pdfrwt beam="2">  1       21 0.54248877E-01 0.20265280E+03</pdfrwt>
<totfact> 0.11496663E+03</totfact>
</mgrwt>
</event>
<event>
 6      1 +2.5196620e+02 2.61067600e+02 7.54677100e-03 1.16128000e-01
       21 -1    0    0  501  502 +0.0000000000e+00 +0.0000000000e+00 +2.4334307166e+02 2.4334307166e+02 0.0000000000e+00 0.0000e+00 1.0000e+00
       21 -1    0    0  505  503 -0.0000000000e+00 -0.0000000000e+00 -4.0715771947e+02 4.0715771947e+02 0.0000000000e+00 0.0000e+00 1.0000e+00
        6  1    1    2  501    0 +1.1084016187e+02 +1.4569304759e+02 -7.2967719429e+01 2.6223137432e+02 1.7300000000e+02 0.0000e+00 1.0000e+00
       -6  1    1    2    0  503 -1.6636710257e+02 -1.2572518606e+02 +6.4669889673e+00 2.7102704140e+02 1.7300000000e+02 0.0000e+00 1.0000e+00
       21  1    1    2  504  502 +2.0496999301e+01 +3.2451755418e+00 -1.7945208808e+01 2.7435172020e+01 0.0000000000e+00 0.0000e+00 1.0000e+00
       21  1    1    2  505  504 +3.5029941391e+01 -2.3213037072e+01 -7.9368708539e+01 8.9807203381e+01 0.0000000000e+00 0.0000e+00 1.0000e+00
<mgrwt>
<rscale>  4 0.26106762E+03</rscale>
<asrwt>0</asrwt>
<pdfrwt beam="1">  1       21 0.37437396E-01 0.26106762E+03</pdfrwt>
<pdfrwt beam="2">  1       21 0.62639649E-01 0.26106762E+03</pdfrwt>
<totfact> 0.15639612E+04</totfact>
</mgrwt>
</event>
<event>
 6      1 +2.5196620e+02 3.16690300e+02 7.54677100e-03 9.49153200e-02
       21 -1    0    0  505  502 +0.0000000000e+00 +0.0000000000e+00 +4.6042050497e+02 4.6042050497e+02 0.0000000000e+00 0.0000e+00 -1.0000e+00
       21 -1    0    0  504  503 -0.0000000000e+00 -0.0000000000e+00 -6.5073335517e+02 6.5073335517e+02 0.0000000000e+00 0.0000e+00 1.0000e+00
        6  1    1    2  501    0 +2.0318292709e+02 -2.0475238456e+02 +1.4802301962e+02 3.6748694559e+02 1.7300000000e+02 0.0000e+00 -1.0000e+00
       -6  1    1    2    0  502 -1.0669372142e+02 +2.2131061644e+02 +2.1169349172e+01 3.0122928225e+02 1.7300000000e+02 0.0000e+00 1.0000e+00
       21  1    1    2  504  501 -7.6373888746e+01 -9.1519771632e+00 -3.9421123346e+02 4.0164564750e+02 0.0000000000e+00 0.0000e+00 1.0000e+00
       21  1    1    2  505  503 -2.0115316923e+01 -7.4062547182e+00 +3.4706014468e+01 4.0791984803e+01 0.0000000000e+00 0.0000e+00 1.0000e+00
<mgrwt>
<rscale>  4 0.31669026E+03</rscale>
<asrwt>0</asrwt>
<pdfrwt beam="1">  1       21 0.70833924E-01 0.31669026E+03</pdfrwt>
<pdfrwt beam="2">  1       21 0.10011282E+00 0.31669026E+03</pdfrwt>
<totfact> 0.13464246E+03</totfact>
</mgrwt>
</event>
<event>
 6      1 +2.5196620e+02 2.96095500e+02 7.54677100e-03 9.28652600e-02
       21 -1    0    0  505  502 +0.0000000000e+00 +0.0000000000e+00 +2.5883339293e+02 2.5883339293e+02 0.0000000000e+00 0.0000e+00 -1.0000e+00
       21 -1    0    0  501  503 -0.0000000000e+00 -0.0000000000e+00 -1.6330503826e+03 1.6330503826e+03 0.0000000000e+00 0.0000e+00 1.0000e+00
        6  1    1    2  501    0 -3.8641552279e+01 -1.6538818294e+02 +5.7997601360e+01 2.4927724000e+02 1.7300000000e+02 0.0000e+00 -1.0000e+00
       -6  1    1    2    0  502 +2.3505650444e+02 +3.3553068605e+01 -2.0037671667e+02 3.5560820754e+02 1.7300000000e+02 0.0000e+00 -1.0000e+00
       21  1    1    2  504  503 +7.4431272466e+01 +4.7674067102e+01 -3.2838576683e+02 3.4007358447e+02 0.0000000000e+00 0.0000e+00 1.0000e+00
       21  1    1    2  505  504 -2.7084622462e+02 +8.4161047237e+01 -9.0345210749e+02 9.4692474347e+02 0.0000000000e+00 0.0000e+00 1.0000e+00
<mgrwt>
<rscale>  4 0.28072406E+03</rscale>
<asrwt>0</asrwt>
<pdfrwt beam="1">  1       21 0.39820522E-01 0.29609546E+03</pdfrwt>
<pdfrwt beam="2">  1       21 0.25123852E+00 0.29609546E+03</pdfrwt>
<totfact> 0.35501510E+02</totfact>
</mgrwt>
</event>
<event>
 6      1 +2.5196620e+02 1.93535800e+02 7.54677100e-03 9.49153200e-02
       21 -1    0    0  505  502 +0.0000000000e+00 +0.0000000000e+00 +5.0126577805e+02 5.0126577805e+02 0.0000000000e+00 0.0000e+00 -1.0000e+00
       21 -1    0    0  501  503 -0.0000000000e+00 -0.0000000000e+00 -3.6597079443e+02 3.6597079443e+02 0.0000000000e+00 0.0000e+00 -1.0000e+00
        6  1    1    2  501    0 -2.2921331726e+01 -7.6406329527e+01 -3.2888180089e+01 1.9332342597e+02 1.7300000000e+02 0.0000e+00 -1.0000e+00
       -6  1    1    2    0  502 +6.6230964867e+01 +9.4051734890e+01 +1.0308570953e+02 2.3192225648e+02 1.7300000000e+02 0.0000e+00 -1.0000e+00
       21  1    1    2  504  503 -2.4647831161e+01 +2.3955768585e+01 -1.8479934110e+02 1.8796859019e+02 0.0000000000e+00 0.0000e+00 -1.0000e+00
       21  1    1    2  505  504 -1.8661801980e+01 -4.1601173948e+01 +2.4989679527e+02 2.5402229983e+02 0.0000000000e+00 0.0000e+00 -1.0000e+00
<mgrwt>
<rscale>  4 0.19353584E+03</rscale>
<asrwt>0</asrwt>
<pdfrwt beam="1">  1       21 0.77117812E-01 0.19353584E+03</pdfrwt>
<pdfrwt beam="2">  1       21 0.56303199E-01 0.19353584E+03</pdfrwt>
<totfact> 0.44310762E+03</totfact>
</mgrwt>
</event>
<event>
 6      1 +2.5196620e+02 2.84482900e+02 7.54677100e-03 1.16128000e-01
       21 -1    0    0  501  502 +0.0000000000e+00 +0.0000000000e+00 +1.7967307399e+03 1.7967307399e+03 0.0000000000e+00 0.0000e+00 1.0000e+00
       21 -1    0    0  505  503 -0.0000000000e+00 -0.0000000000e+00 -1.3687273569e+02 1.3687273569e+02 0.0000000000e+00 0.0000e+00 1.0000e+00
        6  1    1    2  501    0 +1.7640422730e+02 +1.5214944935e+02 +1.4917859158e+03 1.5197440985e+03 1.7300000000e+02 0.0000e+00 1.0000e+00
       -6  1    1    2    0  503 -1.0755334074e+02 -1.6837230573e+02 +2.0330121100e+02 3.3343265712e+02 1.7300000000e+02 0.0000e+00 1.0000e+00
       21  1    1    2  504  502 -3.3051269323e+01 +1.4993368987e+01 -1.4841149452e+01 3.9210295007e+01 0.0000000000e+00 0.0000e+00 -1.0000e+00
       21  1    1    2  505  504 -3.5799617243e+01 +1.2294873881e+00 -2.0387973175e+01 4.1216424932e+01 0.0000000000e+00 0.0000e+00 -1.0000e+00
<mgrwt>
<rscale>  4 0.28448293E+03</rscale>
<asrwt>0</asrwt>
<pdfrwt beam="1">  1       21 0.27642010E+00 0.28448293E+03</pdfrwt>
<pdfrwt beam="2">  1       21 0.21057345E-01 0.28448293E+03</pdfrwt>
<totfact> 0.88635968E+02</totfact>
</mgrwt>
</event>
<event>
 6      1 +2.5196620e+02 1.75956100e+02 7.54677100e-03 1.09079000e-01
       21 -1    0    0  503  502 +0.0000000000e+00 +0.0000000000e+00 +2.5001847618e+02 2.5001847618e+02 0.0000000000e+00 0.0000e+00 1.0000e+00
       21 -1    0    0  501  503 -0.0000000000e+00 -0.0000000000e+00 -4.4601881174e+02 4.4601881174e+02 0.0000000000e+00 0.0000e+00 1.0000e+00
        6  1    1    2  501    0 -1.2960962746e+01 -1.7458633348e+01 -3.3267339682e+02 3.7559736339e+02 1.7300000000e+02 0.0000e+00 1.0000e+00
       -6  1    1    2    0  504 +4.4883156405e+01 +8.5772903187e+01 +5.8202603320e+01 2.0661082180e+02 1.7300000000e+02 0.0000e+00 1.0000e+00
       21  1    1    2  504  505 +1.3700872789e-01 -2.8228925145e+01 +1.4266455094e+01 3.1629459799e+01 0.0000000000e+00 0.0000e+00 -1.0000e+00
       21  1    1    2  505  502 -3.2059202387e+01 -4.0085344694e+01 +6.4204002842e+01 8.2199642930e+01 0.0000000000e+00 0.0000e+00 1.0000e+00
<mgrwt>
<rscale>  4 0.17595609E+03</rscale>
<asrwt>0</asrwt>
<pdfrwt beam="1">  1       21 0.38464381E-01 0.17595609E+03</pdfrwt>
<pdfrwt beam="2">  1       21 0.68618278E-01 0.17595609E+03</pdfrwt>
<totfact> 0.12759997E+04</totfact>
</mgrwt>
</event>
<event>
 6      1 +2.5196620e+02 3.20475700e+02 7.54677100e-03 1.09711200e-01
       21 -1    0    0  501  502 +0.0000000000e+00 +0.0000000000e+00 +8.0451024296e+02 8.0451024296e+02 0.0000000000e+00 0.0000e+00 -1.0000e+00
       21 -1    0    0  505  503 -0.0000000000e+00 -0.0000000000e+00 -2.0433939896e+03 2.0433939896e+03 0.0000000000e+00 0.0000e+00 -1.0000e+00
        6  1    1    2  501    0 -2.6138453679e+02 -1.5385418424e+01 -9.6897920633e+02 1.0185324195e+03 1.7300000000e+02 0.0000e+00 -1.0000e+00
       -6  1    1    2    0  503 -7.1266025798e+00 +2.6677602522e+01 -9.7818766333e+02 9.9375177365e+02 1.7300000000e+02 0.0000e+00 -1.0000e+00
       21  1    1    2  504  502 -1.4450330427e+01 +7.1533588504e+01 +4.0916141761e+02 4.1561873393e+02 0.0000000000e+00 0.0000e+00 -1.0000e+00
       21  1    1    2  505  504 +2.8296146980e+02 -8.2825772603e+01 +2.9912170542e+02 4.2000130553e+02 0.0000000000e+00 0.0000e+00 -1.0000e+00
<mgrwt>
<rscale>  4 0.27565656E+03</rscale>
<asrwt>0</asrwt>
<pdfrwt beam="1">  1       21 0.12377081E+00 0.32047574E+03</pdfrwt>
<pdfrwt beam="2">  1       21 0.31436831E+00 0.32047574E+03</pdfrwt>
<totfact> 0.11394452E+01</totfact>
</mgrwt>
</event>
<event>
 6      1 +2.5196620e+02 3.13087300e+02 7.54677100e-03 1.09079000e-01
       21 -1    0    0  503  502 +0.0000000000e+00 +0.0000000000e+00 +2.0372674838e+03 2.0372674838e+03 0.0000000000e+00 0.0000e+00 1.0000e+00
       21 -1    0    0  501  503 -0.0000000000e+00 -0.0000000000e+00 -2.6511793838e+02 2.6511793838e+02 0.0000000000e+00 0.0000e+00 -1.0000e+00
        6  1    1    2  501    0 +1.2515353101e+02 +2.2198930303e+02 -7.6044675955e+01 3.1726085438e+02 1.7300000000e+02 0.0000e+00 -1.0000e+00
       -6  1    1    2    0  504 -1.5202538429e+02 -2.3991169978e+02 +3.8818847183e+02 5.1116399602e+02 1.7300000000e+02 0.0000e+00 1.0000e+00
       21  1    1    2  504  505 +8.1054904906e+01 -4.0856003601e+00 +2.5646500435e+02 2.6899979219e+02 0.0000000000e+00 0.0000e+00 -1.0000e+00
       21  1    1    2  505  502 -5.4183051616e+01 +2.2007997115e+01 +1.2035407451e+03 1.2049607795e+03 0.0000000000e+00 0.0000e+00 1.0000e+00
<mgrwt>
<rscale>  4 0.31308733E+03</rscale>
<asrwt>0</asrwt>
<pdfrwt beam="1">  1       21 0.31342576E+00 0.31308733E+03</pdfrwt>
<pdfrwt beam="2">  1       21 0.40787377E-01 0.31308733E+03</pdfrwt>
<totfact> 0.14239622E+02</totfact>
</mgrwt>
</event>
<event>
 6      1 +2.5196620e+02 2.44766500e+02 7.54677100e-03 1.12691600e-01
       21 -1    0    0  503  502 +0.0000000000e+00 +0.0000000000e+00 +4.3359120619e+02 4.3359120619e+02 0.0000000000e+00 0.0000e+00 1.0000e+00
       21 -1    0    0  501  503 -0.0000000000e+00 -0.0000000000e+00 -2.4132744187e+03 2.4132744187e+03 0.0000000000e+00 0.0000e+00 1.0000e+00
        6  1    1    2  501    0 +1.6886323409e+02 +1.5135382462e+01 -1.8274512621e+03 1.8434345627e+03 1.7300000000e+02 0.0000e+00 1.0000e+00
       -6  1    1    2    0  504 -1.8168522745e+02 -5.0363116767e+01 -5.3910321474e+02 5.9674721746e+02 1.7300000000e+02 0.0000e+00 -1.0000e+00
       21  1    1    2  504  505 +2.8233840661e+01 +1.4933112659e+01 +1.7471348678e+01 3.6405983530e+01 0.0000000000e+00 0.0000e+00 -1.0000e+00
       21  1    1    2  505  502 -1.5411847307e+01 +2.0294621646e+01 +3.6939991573e+02 3.7027786113e+02 0.0000000000e+00 0.0000e+00 1.0000e+00
<mgrwt>
<rscale>  4 0.24476650E+03</rscale>
<asrwt>0</asrwt>
<pdfrwt beam="1">  1       21 0.66706339E-01 0.24476650E+03</pdfrwt>
<pdfrwt beam="2">  1       21 0.37127299E+00 0.24476650E+03</pdfrwt>
<totfact> 0.24570127E+01</totfact>
</mgrwt>
</event>
<event>
 6      1 +2.5196620e+02 1.79553100e+02 7.54677100e-03 9.49153200e-02
       21 -1    0    0  503  502 +0.0000000000e+00 +0.0000000000e+00 +2.3632692205e+02 2.3632692205e+02 0.0000000000e+00 0.0000e+00 -1.0000e+00
       21 -1    0    0  504  503 -0.0000000000e+00 -0.0000000000e+00 -5.0323767149e+02 5.0323767149e+02 0.0000000000e+00 0.0000e+00 -1.0000e+00
        6  1    1    2  501    0 +9.0606318159e+00 +2.4988365325e+01 +4.9896989912e+01 1.8200336000e+02 1.7300000000e+02 0.0000e+00 -1.0000e+00
       -6  1    1    2    0  505 -1.0574266528e+01 -7.6200352901e+01 -6.5073508203e+00 1.8944565054e+02 1.7300000000e+02 0.0000e+00 -1.0000e+00
       21  1    1    2  504  501 -4.4487294962e+01 +6.2441182521e+01 -3.1145221708e+02 3.2074990914e+02 0.0000000000e+00 0.0000e+00 -1.0000e+00
       21  1    1    2  505  502 +4.6000929674e+01 -1.1229194945e+01 +1.1518285537e+00 4.7365673847e+01 0.0000000000e+00 0.0000e+00 -1.0000e+00
<mgrwt>
<rscale>  4 0.17955306E+03</rscale>
<asrwt>0</asrwt>
<pdfrwt beam="1">  1       21 0.36357988E-01 0.17955306E+03</pdfrwt>
<pdfrwt beam="2">  1       21 0.77421180E-01 0.17955306E+03</pdfrwt>
<totfact> 0.10900233E+04</totfact>
</mgrwt>
</event>
<event>
 6      1 +2.5196620e+02 1.98108000e+02 7.54677100e-03 1.16726300e-01
       21 -1    0    0  504  502 +0.0000000000e+00 +0.0000000000e+00 +8.7321615655e+01 8.7321615655e+01 0.0000000000e+00 0.0000e+00 1.0000e+00
       21 -1    0    0  505  503 -0.0000000000e+00 -0.0000000000e+00 -1.4788341991e+03 1.4788341991e+03 0.0000000000e+00 0.0000e+00 1.0000e+00
        6  1    1    2  501    0 +7.1522298746e+01 -1.0984933510e+01 -8.4683639455e+01 2.0575817547e+02 1.7300000000e+02 0.0000e+00 1.0000e+00
       -6  1    1    2    0  503 -1.3073676745e+02 +3.0148411079e+01 -8.8548429891e+02 9.1214717709e+02 1.7300000000e+02 0.0000e+00 1.0000e+00
       21  1    1    2  504  501 +9.7599533257e-01 -5.5327458938e+01 -6.4967295693e+01 8.5339497239e+01 0.0000000000e+00 0.0000e+00 -1.0000e+00
       21  1    1    2  505  502 +5.8238473370e+01 +3.6163981368e+01 -3.5637734938e+02 3.6291096494e+02 0.0000000000e+00 0.0000e+00 1.0000e+00
<mgrwt>
<rscale>  4 0.19810798E+03</rscale>
<asrwt>0</asrwt>
<pdfrwt beam="1">  1       21 0.13434097E-01 0.19810798E+03</pdfrwt>
<pdfrwt beam="2">  1       21 0.22751292E+00 0.19810798E+03</pdfrwt>
<totfact> 0.43138031E+03</totfact>
</mgrwt>
</event>
<event>
 6      1 +2.5196620e+02 2.82505100e+02 7.54677100e-03 1.12691600e-01
       21 -1    0    0  503  502 +0.0000000000e+00 +0.0000000000e+00 +9.0218223235e+02 9.0218223235e+02 0.0000000000e+00 0.0000e+00 -1.0000e+00
       21 -1    0    0  501  503 -0.0000000000e+00 -0.0000000000e+00 -2.5723993759e+03 2.5723993759e+03 0.0000000000e+00 0.0000e+00 1.0000e+00
        6  1    1    2  501    0 -1.4279431146e+02 +2.2011573469e+02 -7.4018333661e+02 8.0414023891e+02 1.7300000000e+02 0.0000e+00 -1.0000e+00
       -6  1    1    2    0  504 +2.4308591104e+02 +1.1402435690e+00 -1.7524600217e+03 1.7776774701e+03 1.7300000000e+02 0.0000e+00 1.0000e+00
       21  1    1    2  504  505 -5.7593976180e+01 -2.1681756168e+02 +3.3334996107e+02 4.0180731413e+02 0.0000000000e+00 0.0000e+00 -1.0000e+00
       21  1    1    2  505  502 -4.2697623406e+01 -4.4384165782e+00 +4.8907625363e+02 4.9095658509e+02 0.0000000000e+00 0.0000e+00 -1.0000e+00
<mgrwt>
<rscale>  4 0.28250506E+03</rscale>
<asrwt>0</asrwt>
<pdfrwt beam="1">  1       21 0.13879727E+00 0.28250506E+03</pdfrwt>
<pdfrwt beam="2">  1       21 0.39575374E+00 0.28250506E+03</pdfrwt>
<totfact> 0.28590495E+00</totfact>
</mgrwt>
</event>
<event>
 6      1 +2.5196620e+02 3.78565100e+02 7.54677100e-03 1.13287100e-01
       21 -1    0    0  505  502 +0.0000000000e+00 +0.0000000000e+00 +9.1173805047e+02 9.1173805047e+02 0.0000000000e+00 0.0000e+00 -1.0000e+00
       21 -1    0    0  502  503 -0.0000000000e+00 -0.0000000000e+00 -4.8827033373e+02 4.8827033373e+02 0.0000000000e+00 0.0000e+00 -1.0000e+00
        6  1    1    2  501    0 -9.5199041992e+01 +3.1954909357e+02 +3.8399109134e+02 5.3717095884e+02 1.7300000000e+02 0.0000e+00 -1.0000e+00
       -6  1    1    2    0  503 +2.5442709058e+02 +4.2230249429e+01 -2.1831012946e+02 3.7961144743e+02 1.7300000000e+02 0.0000e+00 -1.0000e+00
       21  1    1    2  504  501 -7.3192275176e+01 -2.8193183944e+02 +1.8762887863e+02 3.4647837931e+02 0.0000000000e+00 0.0000e+00 -1.0000e+00
       21  1    1    2  505  504 -8.6035773417e+01 -7.9847503557e+01 +7.0157876237e+01 1.3674759863e+02 0.0000000000e+00 0.0000e+00 1.0000e+00
<mgrwt>
<rscale>  4 0.36028048E+03</rscale>
<asrwt>0</asrwt>
<pdfrwt beam="1">  1       21 0.14026739E+00 0.37856514E+03</pdfrwt>
<pdfrwt beam="2">  1       21 0.75118513E-01 0.37856514E+03</pdfrwt>
<totfact> 0.48738582E+02</totfact>
</mgrwt>
</event>
<event>
 6      1 +2.5196620e+02 1.92460700e+02 7.54677100e-03 1.06301000e-01
       21 -1    0    0  501  502 +0.0000000000e+00 +0.0000000000e+00 +3.0014776526e+02 3.0014776526e+02 0.0000000000e+00 0.0000e+00 -1.0000e+00
       21 -1    0    0  504  503 -0.0000000000e+00 -0.0000000000e+00 -5.1771914797e+02 5.1771914797e+02 0.0000000000e+00 0.0000e+00 -1.0000e+00
        6  1    1    2  501    0 -2.7455321826e+00 +1.1701286050e+02 +6.5742040908e+01 2.1897617087e+02 1.7300000000e+02 0.0000e+00 -1.0000e+00
       -6  1    1    2    0  503 -1.0770468863e+02 +3.9984578736e+01 -1.8219762112e+02 2.7626805757e+02 1.7300000000e+02 0.0000e+00 -1.0000e+00
       21  1    1    2  504  505 +7.5041165389e+01 -1.5220866878e+02 -1.7300609943e+02 2.4234224930e+02 0.0000000000e+00 0.0000e+00 -1.0000e+00
       21  1    1    2  505  502 +3.5409055423e+01 -4.7887704494e+00 +7.1890296939e+01 8.0280435489e+01 0.0000000000e+00 0.0000e+00 -1.0000e+00
<mgrwt>
<rscale>  4 0.19246065E+03</rscale>
<asrwt>0</asrwt>
<pdfrwt beam="1">  1       21 0.46176580E-01 0.19246065E+03</pdfrwt>
<pdfrwt beam="2">  1       21 0.79649098E-01 0.19246065E+03</pdfrwt>
<totfact> 0.62432377E+03</totfact>
</mgrwt>
</event>
<event>
 6      1 +2.5196620e+02 3.51834900e+02 7.54677100e-03 1.13287100e-01
       21 -1    0    0  505  502 +0.0000000000e+00 +0.0000000000e+00 +1.1685204348e+03 1.1685204348e+03 0.0000000000e+00 0.0000e+00 -1.0000e+00
       21 -1    0    0  502  503 -0.0000000000e+00 -0.0000000000e+00 -8.2433964123e+02 8.2433964123e+02 0.0000000000e+00 0.0000e+00 -1.0000e+00
        6  1    1    2  501    0 +5.7855699664e+00 +1.8588263313e+02 +5.2249580920e+02 5.8096187202e+02 1.7300000000e+02 0.0000e+00 -1.0000e+00
       -6  1    1    2    0  503 -1.8851136258e+02 -2.5622155541e+02 -7.2653243590e+02 8.1176622231e+02 1.7300000000e+02 0.0000e+00 -1.0000e+00
       21  1    1    2  504  501 -2.2538405854e+01 +1.4194147174e+01 +3.1144986775e+01 4.0981261006e+01 0.0000000000e+00 0.0000e+00 -1.0000e+00
       21  1    1    2  505  504 +2.0526419847e+02 +5.6144775105e+01 +5.1707243346e+02 5.5915072063e+02 0.0000000000e+00 0.0000e+00 -1.0000e+00
<mgrwt>
<rscale>  4 0.35183486E+03</rscale>
<asrwt>0</asrwt>
<pdfrwt beam="1">  1       21 0.17977237E+00 0.35183486E+03</pdfrwt>
<pdfrwt beam="2">  1       21 0.12682148E+00 0.35183486E+03</pdfrwt>
<totfact> 0.70986268E+01</totfact>
</mgrwt>
</event>
<event>
 6      1 +2.5196620e+02 1.93707400e+02 7.54677100e-03 1.12691600e-01
       21 -1    0    0  504  502 +0.0000000000e+00 +0.0000000000e+00 +8.6638655880e+01 8.6638655880e+01 0.0000000000e+00 0.0000e+00 1.0000e+00
       21 -1    0    0  501  503 -0.0000000000e+00 -0.0000000000e+00 -1.9556950258e+03 1.9556950258e+03 0.0000000000e+00 0.0000e+00 -1.0000e+00
        6  1    1    2  501    0 -6.9535318960e+01 -5.0976303533e+01 -1.3935803419e+03 1.4069217866e+03 1.7300000000e+02 0.0000e+00 -1.0000e+00
       -6  1    1    2    0  505 +7.3912869796e+01 +5.1013757267e+01 -4.7799439267e+02 5.1621037879e+02 1.7300000000e+02 0.0000e+00 1.0000e+00
       21  1    1    2  504  503 +1.4320919202e+01 -3.5799866808e+01 +4.5903722402e+01 5.9948902581e+01 0.0000000000e+00 0.0000e+00 1.0000e+00
       21  1    1    2  505  502 -1.8698470038e+01 +3.5762413074e+01 -4.3385357747e+01 5.9252613761e+01 0.0000000000e+00 0.0000e+00 -1.0000e+00
<mgrwt>
<rscale>  4 0.19370738E+03</rscale>
<asrwt>0</asrwt>
<pdfrwt beam="1">  1       21 0.13329025E-01 0.19370738E+03</pdfrwt>
<pdfrwt beam="2">  1       21 0.30087614E+00 0.19370738E+03</pdfrwt>
<totfact> 0.16373063E+03</totfact>
</mgrwt>
</event>
<event>
 6      1 +2.5196620e+02 5.59090300e+02 7.54677100e-03 1.06301000e-01
       21 -1    0    0  505  502 +0.0000000000e+00 +0.0000000000e+00 +1.8225949901e+03 1.8225949901e+03 0.0000000000e+00 0.0000e+00 1.0000e+00
       21 -1    0    0  501  503 -0.0000000000e+00 -0.0000000000e+00 -2.5443684643e+02 2.5443684643e+02 0.0000000000e+00 0.0000e+00 1.0000e+00
        6  1    1    2  501    0 -9.9420334590e+00 -1.6489481578e+02 +3.9507787352e+02 4.6184918582e+02 1.7300000000e+02 0.0000e+00 1.0000e+00
       -6  1    1    2    0  502 -1.5141002028e+02 -2.3328274824e+02 +4.1251250110e+02 5.2672706256e+02 1.7300000000e+02 0.0000e+00 1.0000e+00
       21  1    1    2  504  503 +1.4719263983e+02 +3.8331165102e+02 +9.3552143249e+01 4.2112408924e+02 0.0000000000e+00 0.0000e+00 1.0000e+00
       21  1    1    2  505  504 +1.4159413909e+01 +1.4865913000e+01 +6.6701562577e+02 6.6733149888e+02 0.0000000000e+00 0.0000e+00 1.0000e+00
<mgrwt>
<rscale>  4 0.55909031E+03</rscale>
<asrwt>0</asrwt>
<pdfrwt beam="1">  1       21 0.28039922E+00 0.55909031E+03</pdfrwt>
<pdfrwt beam="2">  1       21 0.39144131E-01 0.55909031E+03</pdfrwt>
<totfact> 0.20774764E+02</totfact>
</mgrwt>
</event>
<event>
 6      1 +2.5196620e+02 2.04345800e+02 7.54677100e-03 1.15334700e-01
       21 -1    0    0  505  502 +0.0000000000e+00 +0.0000000000e+00 +1.0274142164e+03 1.0274142164e+03 0.0000000000e+00 0.0000e+00 1.0000e+00
       21 -1    0    0  501  503 -0.0000000000e+00 -0.0000000000e+00 -2.9661765055e+02 2.9661765055e+02 0.0000000000e+00 0.0000e+00 1.0000e+00
        6  1    1    2  501    0 +4.1551352968e+01 -8.1188138269e+01 -2.8958977114e+01 1.9770091321e+02 1.7300000000e+02 0.0000e+00 1.0000e+00
       -6  1    1    2    0  504 -7.4656656739e+00 +8.8536900207e+01 +8.4579794619e+02 8.6786962422e+02 1.7300000000e+02 0.0000e+00 1.0000e+00
       21  1    1    2  504  502 -1.3845147762e+01 +2.3602099900e+01 +8.1975415511e+01 8.6421733288e+01 0.0000000000e+00 0.0000e+00 -1.0000e+00
       21  1    1    2  505  503 -2.0240539532e+01 -3.0950861838e+01 -1.6801781870e+02 1.7203959628e+02 0.0000000000e+00 0.0000e+00 1.0000e+00
<mgrwt>
<rscale>  4 0.20434577E+03</rscale>
<asrwt>0</asrwt>
<pdfrwt beam="1">  1       21 0.15806372E+00 0.20434577E+03</pdfrwt>
<pdfrwt beam="2">  1       21 0.45633485E-01 0.20434577E+03</pdfrwt>
<totfact> 0.11832897E+03</totfact>
</mgrwt>
</event>
<event>
 6      1 +2.5196620e+02 1.85136300e+02 7.54677100e-03 1.15334700e-01
       21 -1    0    0  503  502 +0.0000000000e+00 +0.0000000000e+00 +2.2318358262e+03 2.2318358262e+03 0.0000000000e+00 0.0000e+00 -1.0000e+00
       21 -1    0    0  505  503 -0.0000000000e+00 -0.0000000000e+00 -2.1864288785e+02 2.1864288785e+02 0.0000000000e+00 0.0000e+00 -1.0000e+00
        6  1    1    2  501    0 +1.0135309261e+02 +9.6758374629e+01 -2.1309790577e+01 2.2364646122e+02 1.7300000000e+02 0.0000e+00 -1.0000e+00
       -6  1    1    2    0  504 -7.3614252051e+01 -1.8676568668e+01 +2.0511345772e+03 2.0598179352e+03 1.7300000000e+02 0.0000e+00 -1.0000e+00
       21  1    1    2  504  502 +1.9900068276e+01 -1.1500105842e+01 +5.4126735745e+01 5.8804495357e+01 0.0000000000e+00 0.0000e+00 -1.0000e+00
       21  1    1    2  505  501 -4.7638908835e+01 -6.6581700119e+01 -7.0758584027e+01 1.0820982229e+02 0.0000000000e+00 0.0000e+00 -1.0000e+00
<mgrwt>
<rscale>  4 0.18513632E+03</rscale>
<asrwt>0</asrwt>
<pdfrwt beam="1">  1       21 0.34335934E+00 0.18513632E+03</pdfrwt>
<pdfrwt beam="2">  1       21 0.33637369E-01 0.18513632E+03</pdfrwt>
<totfact> 0.16501657E+02</totfact>
</mgrwt>
</event>
<event>
 6      1 +2.5196620e+02 1.85598900e+02 7.54677100e-03 1.09711200e-01
       21 -1    0    0  505  502 +0.0000000000e+00 +0.0000000000e+00 +5.5590648056e+02 5.5590648056e+02 0.0000000000e+00 0.0000e+00 -1.0000e+00
       21 -1    0    0  504  503 -0.0000000000e+00 -0.0000000000e+00 -2.2092709603e+02 2.2092709603e+02 0.0000000000e+00 0.0000e+00 -1.0000e+00
        6  1    1    2  501    0 +4.2718240737e+01 -8.6585774699e+01 -2.6465519110e+01 1.9987838346e+02 1.7300000000e+02 0.0000e+00 1.0000e+00
       -6  1    1    2    0  503 -6.9061452214e+01 -1.9527517829e+01 +2.7670652638e+01 1.8932900769e+02 1.7300000000e+02 0.0000e+00 -1.0000e+00
       21  1    1    2  504  502 +7.7870190086e+00 -2.1794669794e+01 +2.0101572028e+02 2.0234368064e+02 0.0000000000e+00 0.0000e+00 -1.0000e+00
       21  1    1    2  505  501 +1.8556192468e+01 +1.2790796232e+02 +1.3275853073e+02 1.8528250480e+02 0.0000000000e+00 0.0000e+00 -1.0000e+00
<mgrwt>
<rscale>  4 0.18559894E+03</rscale>
<asrwt>0</asrwt>
<pdfrwt beam="1">  1       21 0.85524073E-01 0.18559894E+03</pdfrwt>
<pdfrwt beam="2">  1       21 0.33988784E-01 0.18559894E+03</pdfrwt>
<totfact> 0.99024468E+03</totfact>
</mgrwt>
</event>
<event>
 6      1 +2.5196620e+02 2.26842500e+02 7.54677100e-03 1.16321900e-01
       21 -1    0    0  504  502 +0.0000000000e+00 +0.0000000000e+00 +5.7914894067e+02 5.7914894067e+02 0.0000000000e+00 0.0000e+00 -1.0000e+00
       21 -1    0    0  505  503 -0.0000000000e+00 -0.0000000000e+00 -2.6232691636e+02 2.6232691636e+02 0.0000000000e+00 0.0000e+00 -1.0000e+00
        6  1    1    2  501    0 -2.4274719704e+02 +1.8042834902e+01 +1.9729479256e+02 3.5791895833e+02 1.7300000000e+02 0.0000e+00 -1.0000e+00
       -6  1    1    2    0  502 +9.5363029969e+01 +3.2102079546e+01 +1.9644205820e+02 2.8043383039e+02 1.7300000000e+02 0.0000e+00 -1.0000e+00
       21  1    1    2  504  503 +1.3190593300e+02 -7.9712733041e+01 -6.8779130727e+01 1.6877163208e+02 0.0000000000e+00 0.0000e+00 -1.0000e+00
       21  1    1    2  505  501 +1.5478234068e+01 +2.9567818593e+01 -8.1356957241e+00 3.4351436231e+01 0.0000000000e+00 0.0000e+00 -1.0000e+00
<mgrwt>
<rscale>  4 0.22684251E+03</rscale>
<asrwt>0</asrwt>
<pdfrwt beam="1">  1       21 0.89099837E-01 0.22684251E+03</pdfrwt>
<pdfrwt beam="2">  1       21 0.40357987E-01 0.22684251E+03</pdfrwt>
<totfact> 0.62063477E+03</totfact>
</mgrwt>
</event>
<event>
 6      1 +2.5196620e+02 1.88449000e+02 7.54677100e-03 1.06301000e-01
       21 -1    0    0  505  502 +0.0000000000e+00 +0.0000000000e+00 +4.4010739102e+02 4.4010739102e+02 0.0000000000e+00 0.0000e+00 -1.0000e+00
       21 -1    0    0  501  503 -0.0000000000e+00 -0.0000000000e+00 -3.4045174017e+02 3.4045174017e+02 0.0000000000e+00 0.0000e+00 -1.0000e+00
        6  1    1    2  501    0 +9.0042928782e+01 +4.7367991641e+01 -1.8417016936e+02 2.7239513016e+02 1.7300000000e+02 0.0000e+00 -1.0000e+00
       -6  1    1    2    0  502 -7.0927167347e+01 -4.3273020218e+01 +1.1565553351e+02 2.2407235389e+02 1.7300000000e+02 0.0000e+00 -1.0000e+00
       21  1    1    2  504  503 -3.3473890879e+01 -1.8708741906e+01 -5.1087721752e+01 6.3878585677e+01 0.0000000000e+00 0.0000e+00 -1.0000e+00
       21  1    1    2  505  504 +1.4358129444e+01 +1.4613770483e+01 +2.1925800845e+02 2.2021306146e+02 0.0000000000e+00 0.0000e+00 -1.0000e+00
<mgrwt>
<rscale>  4 0.18844901E+03</rscale>
<asrwt>0</asrwt>
<pdfrwt beam="1">  1       21 0.67708830E-01 0.18844901E+03</pdfrwt>
<pdfrwt beam="2">  1       21 0.52377191E-01 0.18844901E+03</pdfrwt>
<totfact> 0.69142286E+03</totfact>
</mgrwt>
</event>
<event>
 6      1 +2.5196620e+02 1.81204300e+02 7.54677100e-03 9.49153200e-02
       21 -1    0    0  505  502 +0.0000000000e+00 +0.0000000000e+00 +2.0090913705e+03 2.0090913705e+03 0.0000000000e+00 0.0000e+00 -1.0000e+00
       21 -1    0    0  501  503 -0.0000000000e+00 -0.0000000000e+00 -3.0450027859e+01 3.0450027859e+01 0.0000000000e+00 0.0000e+00 -1.0000e+00
        6  1    1    2  501    0 -4.5095885249e+01 -3.9199023746e+01 +7.9961310103e+02 8.2029282191e+02 1.7300000000e+02 0.0000e+00 -1.0000e+00
       -6  1    1    2    0  502 +2.5376643214e+01 +3.5650905217e+01 +5.0625145069e+02 5.3678160586e+02 1.7300000000e+02 0.0000e+00 -1.0000e+00
       21  1    1    2  504  503 +1.8421008133e+00 +2.6795369600e+01 +3.5498965412e+01 4.4514735905e+01 0.0000000000e+00 0.0000e+00 1.0000e+00
       21  1    1    2  505  504 +1.7877141222e+01 -2.3247251071e+01 +6.3727782552e+02 6.3795223470e+02 0.0000000000e+00 0.0000e+00 -1.0000e+00
<mgrwt>
<rscale>  4 0.18120435E+03</rscale>
<asrwt>0</asrwt>
<pdfrwt beam="1">  1       21 0.30909088E+00 0.18120435E+03</pdfrwt>
<pdfrwt beam="2">  1       21 0.46846212E-02 0.18120435E+03</pdfrwt>
<totfact> 0.92078843E+03</totfact>
</mgrwt>
</event>
<event>
 6      1 +2.5196620e+02 1.78356800e+02 7.54677100e-03 9.49153200e-02
       21 -1    0    0  503  502 +0.0000000000e+00 +0.0000000000e+00 +5.3902580832e+01 5.3902580832e+01 0.0000000000e+00 0.0000e+00 -1.0000e+00
       21 -1    0    0  504  503 -0.0000000000e+00 -0.0000000000e+00 -2.6997520760e+03 2.6997520760e+03 0.0000000000e+00 0.0000e+00 -1.0000e+00
        6  1    1    2  501    0 -4.0197785597e+01 -2.5465943635e+01 -7.9099455496e+02 8.1108924430e+02 1.7300000000e+02 0.0000e+00 1.0000e+00
       -6  1    1    2    0  505 -5.3446588358e+01 +3.1703818485e+01 -2.8957537430e+02 3.4299353830e+02 1.7300000000e+02 0.0000e+00 -1.0000e+00
       21  1    1    2  504  501 +7.9916298556e+01 -2.6272732107e+01 -1.5720970534e+03 1.5743462187e+03 0.0000000000e+00 0.0000e+00 -1.0000e+00
       21  1    1    2  505  502 +1.3728075398e+01 +2.0034857257e+01 +6.8174874683e+00 2.5225655488e+01 0.0000000000e+00 0.0000e+00 -1.0000e+00
<mgrwt>
<rscale>  4 0.17835678E+03</rscale>
<asrwt>0</asrwt>
<pdfrwt beam="1">  1       21 0.82927032E-02 0.17835678E+03</pdfrwt>
<pdfrwt beam="2">  1       21 0.41534655E+00 0.17835678E+03</pdfrwt>
<totfact> 0.80568845E+02</totfact>
</mgrwt>
</event>
<event>
 6      1 +2.5196620e+02 1.80680100e+02 7.54677100e-03 1.06301000e-01
       21 -1    0    0  501  502 +0.0000000000e+00 +0.0000000000e+00 +2.4468244944e+02 2.4468244944e+02 0.0000000000e+00 0.0000e+00 1.0000e+00
       21 -1    0    0  504  503 -0.0000000000e+00 -0.0000000000e+00 -3.1529039664e+02 3.1529039664e+02 0.0000000000e+00 0.0000e+00 1.0000e+00
        6  1    1    2  501    0 +2.5797853762e+01 -4.9465388941e+01 +7.5957425705e+01 1.9700478289e+02 1.7300000000e+02 0.0000e+00 1.0000e+00
       -6  1    1    2    0  503 +4.9289275261e-01 +6.4213224301e+01 -1.3993466986e+01 1.8506322767e+02 1.7300000000e+02 0.0000e+00 1.0000e+00
       21  1    1    2  504  505 -3.5852906065e+01 -4.1669813627e+01 -1.3824861321e+02 1.4877662214e+02 0.0000000000e+00 0.0000e+00 1.0000e+00
       21  1    1    2  505  502 +9.5621595499e+00 +2.6921978267e+01 +5.6767072808e+00 2.9128213378e+01 0.0000000000e+00 0.0000e+00 1.0000e+00
<mgrwt>
<rscale>  4 0.18068013E+03</rscale>
<asrwt>0</asrwt>
<pdfrwt beam="1">  1       21 0.37643454E-01 0.18068013E+03</pdfrwt>
<pdfrwt beam="2">  1       21 0.48506215E-01 0.18068013E+03</pdfrwt>
<totfact> 0.27805406E+04</totfact>
</mgrwt>
</event>
<event>
 6      1 +2.5196620e+02 2.65913000e+02 7.54677100e-03 1.07655700e-01
       21 -1    0    0  501  502 +0.0000000000e+00 +0.0000000000e+00 +4.3370794334e+02 4.3370794334e+02 0.0000000000e+00 0.0000e+00 1.0000e+00
       21 -1    0    0  502  503 -0.0000000000e+00 -0.0000000000e+00 -2.9355106208e+02 2.9355106208e+02 0.0000000000e+00 0.0000e+00 -1.0000e+00
        6  1    1    2  501    0 -1.7035782831e+02 -2.4026198210e+01 +8.3119080745e+01 2.5775342762e+02 1.7300000000e+02 0.0000e+00 1.0000e+00
       -6  1    1    2    0  505 +2.3540035430e+02 +8.8115498523e+01 +8.4501225122e+01 3.1661826374e+02 1.7300000000e+02 0.0000e+00 1.0000e+00
       21  1    1    2  504  503 -8.8268032885e+01 -6.3672092308e+01 -5.0668914383e+01 1.2005298769e+02 0.0000000000e+00 0.0000e+00 -1.0000e+00
       21  1    1    2  505  504 +2.3225506889e+01 -4.1720800369e-01 +2.3205489770e+01 3.2834326371e+01 0.0000000000e+00 0.0000e+00 1.0000e+00
<mgrwt>
<rscale>  4 0.26591304E+03</rscale>
<asrwt>0</asrwt>
<pdfrwt beam="1">  1       21 0.66724299E-01 0.26591304E+03</pdfrwt>
<pdfrwt beam="2">  1       21 0.45161702E-01 0.26591304E+03</pdfrwt>
<totfact> 0.92588904E+03</totfact>
</mgrwt>
</event>
<event>
 6      1 +2.5196620e+02 2.01714400e+02 7.54677100e-03 1.16321900e-01
       21 -1    0    0  504  502 +0.0000000000e+00 +0.0000000000e+00 +5.0225937048e+02 5.0225937048e+02 0.0000000000e+00 0.0000e+00 1.0000e+00
       21 -1    0    0  505  503 -0.0000000000e+00 -0.0000000000e+00 -1.9143178604e+02 1.9143178604e+02 0.0000000000e+00 0.0000e+00 -1.0000e+00
        6  1    1    2  501    0 -7.7776582236e+01 -5.8701462612e+01 +3.1614551675e+02 3.7332565706e+02 1.7300000000e+02 0.0000e+00 1.0000e+00
       -6  1    1    2    0  502 +1.3491603662e+02 +2.0452906968e+01 +3.1676073472e+01 2.2260510320e+02 1.7300000000e+02 0.0000e+00 -1.0000e+00
       21  1    1    2  504  503 -2.8339925658e+01 +4.3120810014e+01 -1.2701826586e+00 5.1615588794e+01 0.0000000000e+00 0.0000e+00 1.0000e+00
       21  1    1    2  505  501 -2.8799528721e+01 -4.8722543706e+00 -3.5723823127e+01 4.6144807465e+01 0.0000000000e+00 0.0000e+00 -1.0000e+00
<mgrwt>
<rscale>  4 0.20171437E+03</rscale>
<asrwt>0</asrwt>
<pdfrwt beam="1">  1       21 0.77270672E-01 0.20171437E+03</pdfrwt>
<pdfrwt beam="2">  1       21 0.29451044E-01 0.20171437E+03</pdfrwt>
<totfact> 0.16334226E+04</totfact>
</mgrwt>
</event>
<event>
 6      1 +2.5196620e+02 2.08785900e+02 7.54677100e-03 9.28652600e-02
       21 -1    0    0  505  502 +0.0000000000e+00 +0.0000000000e+00 +2.0054625291e+02 2.0054625291e+02 0.0000000000e+00 0.0000e+00 1.0000e+00
       21 -1    0    0  504  503 -0.0000000000e+00 -0.0000000000e+00 -9.0394407694e+02 9.0394407694e+02 0.0000000000e+00 0.0000e+00 -1.0000e+00
        6  1    1    2  501    0 -8.7748262785e+01 +8.0006454966e+01 -3.3976959443e+02 3.9934091671e+02 1.7300000000e+02 0.0000e+00 -1.0000e+00
       -6  1    1    2    0  502 +8.5520733976e+01 -7.9204815472e+01 +1.0513995533e+02 2.3360352938e+02 1.7300000000e+02 0.0000e+00 1.0000e+00
       21  1    1    2  504  501 -1.3902391393e+01 -1.5318374855e+01 -3.6222457680e+02 3.6281479177e+02 0.0000000000e+00 0.0000e+00 -1.0000e+00
       21  1    1    2  505  503 +1.6129920202e+01 +1.4516735361e+01 -1.0654360813e+02 1.0873109199e+02 0.0000000000e+00 0.0000e+00 -1.0000e+00
<mgrwt>
<rscale>  4 0.20878587E+03</rscale>
<asrwt>0</asrwt>
<pdfrwt beam="1">  1       21 0.30853269E-01 0.20878587E+03</pdfrwt>
<pdfrwt beam="2">  1       21 0.13906832E+00 0.20878587E+03</pdfrwt>
<totfact> 0.36224613E+03</totfact>
</mgrwt>
</event>
<event>
 6      1 +2.5196620e+02 3.28670000e+02 7.54677100e-03 9.49153200e-02
       21 -1    0    0  505  502 +0.0000000000e+00 +0.0000000000e+00 +1.9446932293e+03 1.9446932293e+03 0.0000000000e+00 0.0000e+00 -1.0000e+00
       21 -1    0    0  501  503 -0.0000000000e+00 -0.0000000000e+00 -2.6169510628e+02 2.6169510628e+02 0.0000000000e+00 0.0000e+00 1.0000e+00
        6  1    1    2  501    0 +2.3577499382e+02 -1.4116125582e+02 +1.1209749697e+03 1.1670605085e+03 1.7300000000e+02 0.0000e+00 1.0000e+00
       -6  1    1    2    0  502 -2.1499399186e+02 +1.4406404378e+02 +1.5730605619e+02 3.4878512090e+02 1.7300000000e+02 0.0000e+00 -1.0000e+00
       21  1    1    2  504  503 -2.1280062592e+01 +2.0554941007e+01 -1.4112681676e+02 1.4419474703e+02 0.0000000000e+00 0.0000e+00 1.0000e+00
       21  1    1    2  505  504 +4.9906063625e-01 -2.3457728966e+01 +5.4584391386e+02 5.4634795909e+02 0.0000000000e+00 0.0000e+00 -1.0000e+00
<mgrwt>
<rscale>  4 0.32867004E+03</rscale>
<asrwt>0</asrwt>
<pdfrwt beam="1">  1       21 0.29918356E+00 0.32867004E+03</pdfrwt>
<pdfrwt beam="2">  1       21 0.40260787E-01 0.32867004E+03</pdfrwt>
<totfact> 0.17502053E+02</totfact>
</mgrwt>
</event>
<event>
 6      1 +2.5196620e+02 1.79608300e+02 7.54677100e-03 9.49153200e-02
       21 -1    0    0  505  502 +0.0000000000e+00 +0.0000000000e+00 +1.1173275085e+03 1.1173275085e+03 0.0000000000e+00 0.0000e+00 1.0000e+00
       21 -1    0    0  501  503 -0.0000000000e+00 -0.0000000000e+00 -1.5754756432e+02 1.5754756432e+02 0.0000000000e+00 0.0000e+00 1.0000e+00
        6  1    1    2  501    0 -5.4991242270e+01 -1.9194810984e+01 +2.3830253320e+01 1.8409062569e+02 1.7300000000e+02 0.0000e+00 1.0000e+00
       -6  1    1    2    0  502 -6.3551050676e+00 +1.5797021316e+02 +7.0106961452e+02 7.3920401785e+02 1.7300000000e+02 0.0000e+00 1.0000e+00
       21  1    1    2  504  503 +2.6004831521e+01 +1.0905670920e+00 -3.6151824851e+01 4.4546549126e+01 0.0000000000e+00 0.0000e+00 -1.0000e+00
       21  1    1    2  505  504 +3.5341515817e+01 -1.3986596926e+02 +2.7103190114e+02 3.0703388011e+02 0.0000000000e+00 0.0000e+00 1.0000e+00
<mgrwt>
<rscale>  4 0.17960830E+03</rscale>
<asrwt>0</asrwt>
<pdfrwt beam="1">  1       21 0.17189653E+00 0.17960830E+03</pdfrwt>
<pdfrwt beam="2">  1       21 0.24238088E-01 0.17960830E+03</pdfrwt>
<totfact> 0.33665686E+03</totfact>
</mgrwt>
</event>
<event>
 6      1 +2.5196620e+02 2.48994900e+02 7.54677100e-03 1.06301000e-01
       21 -1    0    0  501  502 +0.0000000000e+00 +0.0000000000e+00 +7.3163040016e+02 7.3163040016e+02 0.0000000000e+00 0.0000e+00 -1.0000e+00
       21 -1    0    0  504  503 -0.0000000000e+00 -0.0000000000e+00 -1.3248423452e+02 1.3248423452e+02 0.0000000000e+00 0.0000e+00 -1.0000e+00
        6  1    1    2  501    0 -1.5026251281e+02 -6.6667385606e+01 +2.0029763217e+02 3.1156300247e+02 1.7300000000e+02 0.0000e+00 -1.0000e+00
       -6  1    1    2    0  503 +1.8407609375e+02 +5.9525748836e+01 +1.7278485123e+02 3.1178667046e+02 1.7300000000e+02 0.0000e+00 -1.0000e+00
       21  1    1    2  504  505 -5.4257241967e+01 +1.2831532739e+01 +1.1635996452e+02 1.2902766324e+02 0.0000000000e+00 0.0000e+00 1.0000e+00
       21  1    1    2  505  502 +2.0443661026e+01 -5.6898959688e+00 +1.0970371773e+02 1.1173729850e+02 0.0000000000e+00 0.0000e+00 1.0000e+00
<mgrwt>
<rscale>  4 0.24899486E+03</rscale>
<asrwt>0</asrwt>
<pdfrwt beam="1">  1       21 0.11255852E+00 0.24899486E+03</pdfrwt>
<pdfrwt beam="2">  1       21 0.20382190E-01 0.24899486E+03</pdfrwt>
<totfact> 0.13291722E+04</totfact>
</mgrwt>
</event>
<event>
 6      1 +2.5196620e+02 2.35585800e+02 7.54677100e-03 1.06301000e-01
       21 -1    0    0  504  502 +0.0000000000e+00 +0.0000000000e+00 +1.7471563199e+03 1.7471563199e+03 0.0000000000e+00 0.0000e+00 -1.0000e+00
       21 -1    0    0  501  503 -0.0000000000e+00 -0.0000000000e+00 -4.6175478556e+01 4.6175478556e+01 0.0000000000e+00 0.0000e+00 1.0000e+00
        6  1    1    2  501    0 +1.3713965092e+02 +9.1438244179e-01 +4.5460926536e+02 5.0537778355e+02 1.7300000000e+02 0.0000e+00 1.0000e+00
       -6  1    1    2    0  505 -1.8097023612e+02 -7.3415630926e+00 +9.3407514039e+02 9.6707264092e+02 1.7300000000e+02 0.0000e+00 -1.0000e+00
       21  1    1    2  504  503 +2.7239482697e+01 -5.3644525115e+00 +4.5441318363e+01 5.3251104993e+01 0.0000000000e+00 0.0000e+00 1.0000e+00
       21  1    1    2  505  502 +1.6591102506e+01 +1.1791633162e+01 +2.6685511721e+02 2.6763026898e+02 0.0000000000e+00 0.0000e+00 -1.0000e+00
<mgrwt>
<rscale>  4 0.23558576E+03</rscale>
<asrwt>0</asrwt>
<pdfrwt beam="1">  1       21 0.26879323E+00 0.23558576E+03</pdfrwt>
<pdfrwt beam="2">  1       21 0.71039211E-02 0.23558576E+03</pdfrwt>
<totfact> 0.73115544E+03</totfact>
</mgrwt>
</event>
<event>
 6      1 +2.5196620e+02 1.86772400e+02 7.54677100e-03 1.14954000e-01
       21 -1    0    0  501  502 +0.0000000000e+00 +0.0000000000e+00 +1.0172381143e+02 1.0172381143e+02 0.0000000000e+00 0.0000e+00 -1.0000e+00
       21 -1    0    0  505  503 -0.0000000000e+00 -0.0000000000e+00 -1.8781713157e+03 1.8781713157e+03 0.0000000000e+00 0.0000e+00 -1.0000e+00
        6  1    1    2  501    0 +3.8228672764e+01 -7.8564459675e+00 -8.5643245973e+02 8.7460203136e+02 1.7300000000e+02 0.0000e+00 -1.0000e+00
       -6  1    1    2    0  503 -7.9902446371e+01 +8.1654261298e+01 -9.6455002210e+02 9.8657871680e+02 1.7300000000e+02 0.0000e+00 -1.0000e+00
       21  1    1    2  504  502 -1.4838149382e+01 -1.8479068185e+01 -6.5264670090e+00 2.4581322375e+01 0.0000000000e+00 0.0000e+00 1.0000e+00
       21  1    1    2  505  504 +5.6511922990e+01 -5.5318747145e+01 +5.1061444556e+01 9.4133056605e+01 0.0000000000e+00 0.0000e+00 -1.0000e+00
<mgrwt>
<rscale>  4 0.18677244E+03</rscale>
<asrwt>0</asrwt>
<pdfrwt beam="1">  1       21 0.15649817E-01 0.18677244E+03</pdfrwt>
<pdfrwt beam="2">  1       21 0.28894943E+00 0.18677244E+03</pdfrwt>
<totfact> 0.14459560E+03</totfact>
</mgrwt>
</event>
<event>
 6      1 +2.5196620e+02 3.66695400e+02 7.54677100e-03 1.13287100e-01
       21 -1    0    0  504  502 +0.0000000000e+00 +0.0000000000e+00 +9.9275771979e+02 9.9275771979e+02 0.0000000000e+00 0.0000e+00 1.0000e+00
       21 -1    0    0  505  503 -0.0000000000e+00 -0.0000000000e+00 -5.2278758544e+02 5.2278758544e+02 0.0000000000e+00 0.0000e+00 -1.0000e+00
        6  1    1    2  501    0 -2.8454504351e+01 -3.1411924530e+02 +1.4230019617e+02 3.8685773214e+02 1.7300000000e+02 0.0000e+00 1.0000e+00
       -6  1    1    2    0  503 -5.8343979853e+01 +3.2494119879e+02 -1.9377583647e+02 4.2008198897e+02 1.7300000000e+02 0.0000e+00 -1.0000e+00
       21  1    1    2  504  501 +2.4693939552e+01 -1.8552164227e+02 +3.8206575481e+01 1.9101783375e+02 0.0000000000e+00 0.0000e+00 1.0000e+00
       21  1    1    2  505  502 +6.2104544652e+01 +1.7469968878e+02 +4.8323919916e+02 5.1758775037e+02 0.0000000000e+00 0.0000e+00 1.0000e+00
<mgrwt>
<rscale>  4 0.36669544E+03</rscale>
<asrwt>0</asrwt>
<pdfrwt beam="1">  1       21 0.15273196E+00 0.36669544E+03</pdfrwt>
<pdfrwt beam="2">  1       21 0.80428860E-01 0.36669544E+03</pdfrwt>
<totfact> 0.33419558E+02</totfact>
</mgrwt>
</event>
<event>
 6      1 +2.5196620e+02 2.57853000e+02 7.54677100e-03 1.07326700e-01
       21 -1    0    0  503  502 +0.0000000000e+00 +0.0000000000e+00 +2.6189968824e+02 2.6189968824e+02 0.0000000000e+00 0.0000e+00 -1.0000e+00
       21 -1    0    0  501  503 -0.0000000000e+00 -0.0000000000e+00 -7.5944798145e+02 7.5944798145e+02 0.0000000000e+00 0.0000e+00 1.0000e+00
        6  1    1    2  501    0 +1.0334316576e+01 -1.6473003604e+01 -5.3200865271e+02 5.5976813459e+02 1.7300000000e+02 0.0000e+00 1.0000e+00
       -6  1    1    2    0  504 +1.5297876216e+02 +1.1573816975e+02 +3.4747078381e+01 2.6064187129e+02 1.7300000000e+02 0.0000e+00 1.0000e+00
       21  1    1    2  504  505 -6.5591523803e+01 -4.3460977432e+01 -3.0550727952e+01 8.4406466178e+01 0.0000000000e+00 0.0000e+00 -1.0000e+00
       21  1    1    2  505  502 -9.7721554937e+01 -5.5804188717e+01 +3.0264009069e+01 1.1653119764e+02 0.0000000000e+00 0.0000e+00 -1.0000e+00
<mgrwt>
<rscale>  4 0.23373422E+03</rscale>
<asrwt>0</asrwt>
<pdfrwt beam="1">  1       21 0.40292259E-01 0.25785300E+03</pdfrwt>
<pdfrwt beam="2">  1       21 0.11683815E+00 0.25785300E+03</pdfrwt>
<totfact> 0.31856849E+03</totfact>
</mgrwt>
</event>
<event>
 6      1 +2.5196620e+02 3.42191600e+02 7.54677100e-03 1.16321900e-01
       21 -1    0    0  504  502 +0.0000000000e+00 +0.0000000000e+00 +8.3393583342e+02 8.3393583342e+02 0.0000000000e+00 0.0000e+00 1.0000e+00
       21 -1    0    0  505  503 -0.0000000000e+00 -0.0000000000e+00 -4.2605530835e+02 4.2605530835e+02 0.0000000000e+00 0.0000e+00 -1.0000e+00
        6  1    1    2  501    0 -4.6907337682e+01 +3.1170233485e+02 +4.8788681174e+02 6.0607028053e+02 1.7300000000e+02 0.0000e+00 1.0000e+00
       -6  1    1    2    0  502 +1.2242390325e+02 -7.9970187383e+00 +8.2443265575e+01 2.2754660277e+02 1.7300000000e+02 0.0000e+00 1.0000e+00
       21  1    1    2  504  503 -1.3999334960e+02 -2.4714998766e+02 -5.5725691091e+01 2.8945916289e+02 0.0000000000e+00 0.0000e+00 -1.0000e+00
       21  1    1    2  505  501 +6.4476784034e+01 -5.6555328453e+01 -1.0672386115e+02 1.3691509557e+02 0.0000000000e+00 0.0000e+00 -1.0000e+00
<mgrwt>
<rscale>  4 0.30718159E+03</rscale>
<asrwt>0</asrwt>
<pdfrwt beam="1">  1       21 0.12829782E+00 0.34219161E+03</pdfrwt>
<pdfrwt beam="2">  1       21 0.65546971E-01 0.34219161E+03</pdfrwt>
<totfact> 0.85158363E+02</totfact>
</mgrwt>
</event>
<event>
 6      1 +2.5196620e+02 2.16214600e+02 7.54677100e-03 9.49153200e-02
       21 -1    0    0  505  502 +0.0000000000e+00 +0.0000000000e+00 +7.9059693767e+02 7.9059693767e+02 0.0000000000e+00 0.0000e+00 1.0000e+00
       21 -1    0    0  504  503 -0.0000000000e+00 -0.0000000000e+00 -2.8102469113e+02 2.8102469113e+02 0.0000000000e+00 0.0000e+00 -1.0000e+00
        6  1    1    2  501    0 -1.0660787375e+02 +2.4238147742e+01 +5.9833564810e+02 6.3236640829e+02 1.7300000000e+02 0.0000e+00 1.0000e+00
       -6  1    1    2    0  502 +1.4673233296e+02 -8.5670383322e+00 -5.7436164299e-01 2.2700903412e+02 1.7300000000e+02 0.0000e+00 -1.0000e+00
       21  1    1    2  504  501 -1.8848692022e+01 -1.8688870608e+01 -1.4713264405e+02 1.4950773231e+02 0.0000000000e+00 0.0000e+00 -1.0000e+00
       21  1    1    2  505  503 -2.1275767196e+01 +3.0177611976e+00 +5.8943604126e+01 6.2738454075e+01 0.0000000000e+00 0.0000e+00 1.0000e+00
<mgrwt>
<rscale>  4 0.21621459E+03</rscale>
<asrwt>0</asrwt>
<pdfrwt beam="1">  1       21 0.12163030E+00 0.21621459E+03</pdfrwt>
<pdfrwt beam="2">  1       21 0.43234568E-01 0.21621459E+03</pdfrwt>
<totfact> 0.25736674E+03</totfact>
</mgrwt>
</event>
<event>
 6      1 +2.5196620e+02 2.28375900e+02 7.54677100e-03 1.16726300e-01
       21 -1    0    0  504  502 +0.0000000000e+00 +0.0000000000e+00 +1.4791363963e+02 1.4791363963e+02 0.0000000000e+00 0.0000e+00 1.0000e+00
       21 -1    0    0  505  503 -0.0000000000e+00 -0.0000000000e+00 -9.1145681958e+02 9.1145681958e+02 0.0000000000e+00 0.0000e+00 1.0000e+00
        6  1    1    2  501    0 +4.6116919673e+01 -2.3794135320e+02 -1.7794963091e+02 3.4689757708e+02 1.7300000000e+02 0.0000e+00 1.0000e+00
       -6  1    1    2    0  503 -1.8478277948e+01 +7.1511216302e+01 -1.7016377774e+02 2.5365333049e+02 1.7300000000e+02 0.0000e+00 1.0000e+00
       21  1    1    2  504  501 +7.5952313008e+00 +7.8141507620e+01 -8.8286607135e+01 1.1814528239e+02 0.0000000000e+00 0.0000e+00 -1.0000e+00
       21  1    1    2  505  502 -3.5233873026e+01 +8.8288629282e+01 -3.2714316416e+02 3.4067426925e+02 0.0000000000e+00 0.0000e+00 -1.0000e+00
<mgrwt>
<rscale>  4 0.22837595E+03</rscale>
<asrwt>0</asrwt>
<pdfrwt beam="1">  1       21 0.22755944E-01 0.22837595E+03</pdfrwt>
<pdfrwt beam="2">  1       21 0.14022413E+00 0.22837595E+03</pdfrwt>
<totfact> 0.62810098E+03</totfact>
</mgrwt>
</event>
<event>
 6      1 +2.5196620e+02 1.77721400e+02 7.54677100e-03 1.07655700e-01
       21 -1    0    0  501  502 +0.0000000000e+00 +0.0000000000e+00 +2.6235266619e+02 2.6235266619e+02 0.0000000000e+00 0.0000e+00 1.0000e+00
       21 -1    0    0  504  503 -0.0000000000e+00 -0.0000000000e+00 -8.7122606472e+02 8.7122606472e+02 0.0000000000e+00 0.0000e+00 1.0000e+00
        6  1    1    2  501    0 +2.8896177937e+01 -2.9475247302e+01 -5.9872440255e+02 6.2458281237e+02 1.7300000000e+02 0.0000e+00 1.0000e+00
       -6  1    1    2    0  505 +2.4245656764e+01 +4.3096348606e+00 +1.2689133967e+02 2.1595563643e+02 1.7300000000e+02 0.0000e+00 1.0000e+00
       21  1    1    2  504  502 +1.5207446366e+01 +1.4696163533e+01 -1.9904482653e+02 2.0016514835e+02 0.0000000000e+00 0.0000e+00 1.0000e+00
       21  1    1    2  505  503 -6.8349281067e+01 +1.0469448908e+01 +6.2004490874e+01 9.2875133762e+01 0.0000000000e+00 0.0000e+00 1.0000e+00
<mgrwt>
<rscale>  4 0.17772145E+03</rscale>
<asrwt>0</asrwt>
<pdfrwt beam="1">  1       21 0.40361949E-01 0.17772145E+03</pdfrwt>
<pdfrwt beam="2">  1       21 0.13403478E+00 0.17772145E+03</pdfrwt>
<totfact> 0.23998855E+03</totfact>
</mgrwt>
</event>
<event>
 6      1 +2.5196620e+02 4.89353100e+02 7.54677100e-03 1.16321900e-01
       21 -1    0    0  503  502 +0.0000000000e+00 +0.0000000000e+00 +2.5676710744e+02 2.5676710744e+02 0.0000000000e+00 0.0000e+00 -1.0000e+00
       21 -1    0    0  505  503 -0.0000000000e+00 -0.0000000000e+00 -1.5600743134e+03 1.5600743134e+03 0.0000000000e+00 0.0000e+00 -1.0000e+00
        6  1    1    2  501    0 +9.7081331459e+01 -4.2427514995e+02 -2.9242287118e+02 5.5215425686e+02 1.7300000000e+02 0.0000e+00 -1.0000e+00
       -6  1    1    2    0  502 -1.0256376257e+02 -8.7035294388e+01 -2.7946487001e+02 3.5513952389e+02 1.7300000000e+02 0.0000e+00 -1.0000e+00
       21  1    1    2  504  501 +3.2805843079e+01 +5.1009495421e+02 -6.7357226250e+02 8.4556057054e+02 0.0000000000e+00 0.0000e+00 -1.0000e+00
       21  1    1    2  505  504 -2.7323411966e+01 +1.2154901243e+00 -5.7847202324e+01 6.3987069588e+01 0.0000000000e+00 0.0000e+00 1.0000e+00
<mgrwt>
<rscale>  4 0.40152326E+03</rscale>
<asrwt>0</asrwt>
<pdfrwt beam="1">  1       21 0.39502632E-01 0.48935311E+03</pdfrwt>
<pdfrwt beam="2">  1       21 0.24001143E+00 0.48935311E+03</pdfrwt>
<totfact> 0.37307695E+02</totfact>
</mgrwt>
</event>
<event>
 6      1 +2.5196620e+02 1.98868200e+02 7.54677100e-03 1.02366900e-01
       21 -1    0    0  503  502 +0.0000000000e+00 +0.0000000000e+00 +1.3357911016e+02 1.3357911016e+02 0.0000000000e+00 0.0000e+00 -1.0000e+00
       21 -1    0    0  505  503 -0.0000000000e+00 -0.0000000000e+00 -4.3962335876e+02 4.3962335876e+02 0.0000000000e+00 0.0000e+00 -1.0000e+00
        6  1    1    2  501    0 +1.2171391762e+02 +2.3313035015e+01 -5.9884690496e+01 2.2107227664e+02 1.7300000000e+02 0.0000e+00 -1.0000e+00
       -6  1    1    2    0  502 -5.9449249331e+01 -1.5573384895e+01 -1.5739082977e+02 2.4182145657e+02 1.7300000000e+02 0.0000e+00 -1.0000e+00
       21  1    1    2  504  501 -2.2690599548e+01 +3.5152759425e+00 -2.1503157689e+01 3.1458007938e+01 0.0000000000e+00 0.0000e+00 -1.0000e+00
       21  1    1    2  505  504 -3.9574068737e+01 -1.1254926063e+01 -6.7265570637e+01 7.8850727773e+01 0.0000000000e+00 0.0000e+00 -1.0000e+00
<mgrwt>
<rscale>  4 0.19886820E+03</rscale>
<asrwt>0</asrwt>
<pdfrwt beam="1">  1       21 0.20550632E-01 0.19886820E+03</pdfrwt>
<pdfrwt beam="2">  1       21 0.67634363E-01 0.19886820E+03</pdfrwt>
<totfact> 0.43705001E+04</totfact>
</mgrwt>
</event>
<event>
 6      1 +2.5196620e+02 2.87673600e+02 7.54677100e-03 9.49153200e-02
       21 -1    0    0  504  502 +0.0000000000e+00 +0.0000000000e+00 +2.3355005196e+02 2.3355005196e+02 0.0000000000e+00 0.0000e+00 -1.0000e+00
       21 -1    0    0  501  503 -0.0000000000e+00 -0.0000000000e+00 -7.5252213152e+02 7.5252213152e+02 0.0000000000e+00 0.0000e+00 -1.0000e+00
        6  1    1    2  501    0 -1.2776442156e+02 +1.5043441001e+02 -1.5659979062e+02 3.0562518475e+02 1.7300000000e+02 0.0000e+00 -1.0000e+00
       -6  1    1    2    0  505 +2.0259575014e+02 -1.6985259549e+02 -1.2354765859e+02 3.3924617332e+02 1.7300000000e+02 0.0000e+00 -1.0000e+00
       21  1    1    2  504  503 -1.0697300510e+02 +6.7514616329e+00 -2.7258190375e+02 2.9289878850e+02 0.0000000000e+00 0.0000e+00 -1.0000e+00
       21  1    1    2  505  502 +3.2141676515e+01 +1.2666723845e+01 +3.3757273404e+01 4.8302036912e+01 0.0000000000e+00 0.0000e+00 1.0000e+00
<mgrwt>
<rscale>  4 0.28767359E+03</rscale>
<asrwt>0</asrwt>
<pdfrwt beam="1">  1       21 0.35930778E-01 0.28767359E+03</pdfrwt>
<pdfrwt beam="2">  1       21 0.11577263E+00 0.28767359E+03</pdfrwt>
<totfact> 0.40343548E+03</totfact>
</mgrwt>
</event>
<event>
 6      1 +2.5196620e+02 1.87096900e+02 7.54677100e-03 1.16321900e-01
       21 -1    0    0  505  502 +0.0000000000e+00 +0.0000000000e+00 +4.1401002155e+02 4.1401002155e+02 0.0000000000e+00 0.0000e+00 -1.0000e+00
       21 -1    0    0  504  503 -0.0000000000e+00 -0.0000000000e+00 -7.5462184049e+02 7.5462184049e+02 0.0000000000e+00 0.0000e+00 -1.0000e+00
        6  1    1    2  501    0 +5.9801802385e+00 -3.0680433713e+01 +1.6156764801e+02 2.3876799712e+02 1.7300000000e+02 0.0000e+00 -1.0000e+00
       -6  1    1    2    0  502 +1.3968578446e+02 +1.0971277422e+02 +1.2256989316e+02 2.7658884634e+02 1.7300000000e+02 0.0000e+00 -1.0000e+00
       21  1    1    2  504  501 -1.1623210777e+02 -9.4742224635e+01 -5.6784674633e+02 5.8731245460e+02 0.0000000000e+00 0.0000e+00 -1.0000e+00
       21  1    1    2  505  503 -2.9433856934e+01 +1.5709884128e+01 -5.6902613775e+01 6.5962563987e+01 0.0000000000e+00 0.0000e+00 -1.0000e+00
<mgrwt>
<rscale>  4 0.18709686E+03</rscale>
<asrwt>0</asrwt>
<pdfrwt beam="1">  1       21 0.63693851E-01 0.18709686E+03</pdfrwt>
<pdfrwt beam="2">  1       21 0.11609567E+00 0.18709686E+03</pdfrwt>
<totfact> 0.13120438E+03</totfact>
</mgrwt>
</event>
<event>
 6      1 +2.5196620e+02 2.14654900e+02 7.54677100e-03 9.49153200e-02
       21 -1    0    0  504  502 +0.0000000000e+00 +0.0000000000e+00 +5.3292280521e+02 5.3292280521e+02 0.0000000000e+00 0.0000e+00 -1.0000e+00
       21 -1    0    0  501  503 -0.0000000000e+00 -0.0000000000e+00 -5.8713280223e+02 5.8713280223e+02 0.0000000000e+00 0.0000e+00 -1.0000e+00
        6  1    1    2  501    0 -7.9622966441e+01 -9.4096066004e+01 +2.0051545292e+02 2.9211185063e+02 1.7300000000e+02 0.0000e+00 -1.0000e+00
       -6  1    1    2    0  505 -3.6249236753e+01 +1.2471786557e+02 -1.1071275818e+02 2.4301207373e+02 1.7300000000e+02 0.0000e+00 -1.0000e+00
       21  1    1    2  504  503 -2.1653322707e+01 +1.4777570192e+01 -3.4012842118e+02 3.4113719507e+02 0.0000000000e+00 0.0000e+00 -1.0000e+00
       21  1    1    2  505  502 +1.3752552590e+02 -4.5399369760e+01 +1.9611572942e+02 2.4379448799e+02 0.0000000000e+00 0.0000e+00 -1.0000e+00
<mgrwt>
<rscale>  4 0.21465489E+03</rscale>
<asrwt>0</asrwt>
<pdfrwt beam="1">  1       21 0.81988124E-01 0.21465489E+03</pdfrwt>
<pdfrwt beam="2">  1       21 0.90328123E-01 0.21465489E+03</pdfrwt>
<totfact> 0.13277073E+03</totfact>
</mgrwt>
</event>
<event>
 6      1 +2.5196620e+02 5.04099300e+02 7.54677100e-03 1.16726300e-01
       21 -1    0    0  504  502 +0.0000000000e+00 +0.0000000000e+00 +1.3414041868e+03 1.3414041868e+03 0.0000000000e+00 0.0000e+00 -1.0000e+00
       21 -1    0    0  505  503 -0.0000000000e+00 -0.0000000000e+00 -2.8234392384e+02 2.8234392384e+02 0.0000000000e+00 0.0000e+00 1.0000e+00
        6  1    1    2  501    0 +4.3899411672e+02 -1.6569413248e+01 +2.4518605986e+02 5.3201088703e+02 1.7300000000e+02 0.0000e+00 1.0000e+00
       -6  1    1    2    0  503 -4.9180085374e+02 -3.7427167669e+01 +7.9218738023e+02 9.4908309331e+02 1.7300000000e+02 0.0000e+00 -1.0000e+00
       21  1    1    2  504  501 +5.9944548591e+01 -2.3322325647e+00 +5.1014366419e+01 7.8748039948e+01 0.0000000000e+00 0.0000e+00 -1.0000e+00
       21  1    1    2  505  502 -7.1378115673e+00 +5.6328813482e+01 -2.9327543501e+01 6.3906090399e+01 0.0000000000e+00 0.0000e+00 1.0000e+00
<mgrwt>
<rscale>  4 0.50409926E+03</rscale>
<asrwt>0</asrwt>
<pdfrwt beam="1">  1       21 0.20636987E+00 0.50409926E+03</pdfrwt>
<pdfrwt beam="2">  1       21 0.43437528E-01 0.50409926E+03</pdfrwt>
<totfact> 0.49948638E+02</totfact>
</mgrwt>
</event>
<event>
 6      1 +2.5196620e+02 1.88371300e+02 7.54677100e-03 1.16128000e-01
       21 -1    0    0  501  502 +0.0000000000e+00 +0.0000000000e+00 +8.4047268878e+01 8.4047268878e+01 0.0000000000e+00 0.0000e+00 -1.0000e+00
       21 -1    0    0  505  503 -0.0000000000e+00 -0.0000000000e+00 -1.0940188069e+03 1.0940188069e+03 0.0000000000e+00 0.0000e+00 -1.0000e+00
        6  1    1    2  501    0 +7.0567343552e+01 +3.3145436660e+01 -7.2283003984e+01 2.0305714125e+02 1.7300000000e+02 0.0000e+00 -1.0000e+00
       -6  1    1    2    0  503 -1.8545557759e+01 -8.3701687867e+01 -6.6429154999e+02 6.9178188301e+02 1.7300000000e+02 0.0000e+00 -1.0000e+00
       21  1    1    2  504  502 -1.6991445624e+01 +1.8736684699e+01 -1.2246175487e+02 1.2504660725e+02 0.0000000000e+00 0.0000e+00 1.0000e+00
       21  1    1    2  505  504 -3.5030340169e+01 +3.1819566507e+01 -1.5093522918e+02 1.5818044428e+02 0.0000000000e+00 0.0000e+00 1.0000e+00
<mgrwt>
<rscale>  4 0.18837129E+03</rscale>
<asrwt>0</asrwt>
<pdfrwt beam="1">  1       21 0.12930351E-01 0.18837129E+03</pdfrwt>
<pdfrwt beam="2">  1       21 0.16831056E+00 0.18837129E+03</pdfrwt>
<totfact> 0.11293673E+04</totfact>
</mgrwt>
</event>
<event>
 6      1 +2.5196620e+02 4.30118000e+02 7.54677100e-03 1.09711200e-01
       21 -1    0    0  504  502 +0.0000000000e+00 +0.0000000000e+00 +9.1719689616e+02 9.1719689616e+02 0.0000000000e+00 0.0000e+00 -1.0000e+00
       21 -1    0    0  502  503 -0.0000000000e+00 -0.0000000000e+00 -2.6108596849e+02 2.6108596849e+02 0.0000000000e+00 0.0000e+00 1.0000e+00
        6  1    1    2  501    0 -1.2893628715e+02 +3.4357996408e+02 +4.8019497240e+02 6.2863977712e+02 1.7300000000e+02 0.0000e+00 -1.0000e+00
       -6  1    1    2    0  503 +9.3790151067e+01 -3.9814388138e+02 +1.2488804528e+02 4.6134712156e+02 1.7300000000e+02 0.0000e+00 1.0000e+00
       21  1    1    2  504  505 +9.2684963525e+00 +2.6523914542e+01 +3.9429380386e+01 4.8415897233e+01 0.0000000000e+00 0.0000e+00 1.0000e+00
       21  1    1    2  505  501 +2.5877639731e+01 +2.8040002761e+01 +1.1598529606e+01 3.9880068730e+01 0.0000000000e+00 0.0000e+00 1.0000e+00
<mgrwt>
<rscale>  4 0.43011801E+03</rscale>
<asrwt>0</asrwt>
<pdfrwt beam="1">  1       21 0.14110721E+00 0.43011801E+03</pdfrwt>
<pdfrwt beam="2">  1       21 0.40167072E-01 0.43011801E+03</pdfrwt>
<totfact> 0.18068054E+03</totfact>
</mgrwt>
</event>
<event>
 6      1 +2.5196620e+02 2.83625000e+02 7.54677100e-03 9.49153200e-02
       21 -1    0    0  503  502 +0.0000000000e+00 +0.0000000000e+00 +3.0434274173e+02 3.0434274173e+02 0.0000000000e+00 0.0000e+00 1.0000e+00
       21 -1    0    0  504  503 -0.0000000000e+00 -0.0000000000e+00 -7.2115398498e+02 7.2115398498e+02 0.0000000000e+00 0.0000e+00 -1.0000e+00
        6  1    1    2  501    0 +1.0497206649e+02 -2.4118684080e+02 +1.3240567187e+02 3.4154134283e+02 1.7300000000e+02 0.0000e+00 1.0000e+00
       -6  1    1    2    0  505 -9.0720923122e+01 +1.2765400334e+02 -2.3536802117e+02 3.3144069733e+02 1.7300000000e+02 0.0000e+00 -1.0000e+00
       21  1    1    2  504  501 +6.4380407928e+00 +1.0470190356e+02 -3.1288227142e+02 3.2999886780e+02 0.0000000000e+00 0.0000e+00 1.0000e+00
       21  1    1    2  505  502 -2.0689184159e+01 +8.8309339079e+00 -9.6662253074e-01 2.2515818749e+01 0.0000000000e+00 0.0000e+00 -1.0000e+00
<mgrwt>
<rscale>  4 0.28362504E+03</rscale>
<asrwt>0</asrwt>
<pdfrwt beam="1">  1       21 0.46821960E-01 0.28362504E+03</pdfrwt>
<pdfrwt beam="2">  1       21 0.11094677E+00 0.28362504E+03</pdfrwt>
<totfact> 0.26119367E+03</totfact>
</mgrwt>
</event>
<event>
 6      1 +2.5196620e+02 3.41775700e+02 7.54677100e-03 1.12691600e-01
       21 -1    0    0  504  502 +0.0000000000e+00 +0.0000000000e+00 +9.6485912032e+02 9.6485912032e+02 0.0000000000e+00 0.0000e+00 1.0000e+00
       21 -1    0    0  501  503 -0.0000000000e+00 -0.0000000000e+00 -2.6440774006e+02 2.6440774006e+02 0.0000000000e+00 0.0000e+00 1.0000e+00
        6  1    1    2  501    0 -2.1039580022e+01 +3.5545964787e+01 +2.3147615123e+02 2.9191846144e+02 1.7300000000e+02 0.0000e+00 -1.0000e+00
       -6  1    1    2    0  505 +1.2787462111e+02 +1.8340085433e+02 +1.5345456541e+02 3.2165990695e+02 1.7300000000e+02 0.0000e+00 1.0000e+00
       21  1    1    2  504  503 -1.6993682235e+02 -3.2140532602e+02 +3.3430194290e+02 4.9390049222e+02 0.0000000000e+00 0.0000e+00 1.0000e+00
       21  1    1    2  505  502 +6.3101781265e+01 +1.0245850690e+02 -1.8781279286e+01 1.2178799976e+02 0.0000000000e+00 0.0000e+00 1.0000e+00
<mgrwt>
<rscale>  4 0.29149797E+03</rscale>
<asrwt>0</asrwt>
<pdfrwt beam="1">  1       21 0.14843986E+00 0.34177575E+03</pdfrwt>
<pdfrwt beam="2">  1       21 0.40678114E-01 0.34177575E+03</pdfrwt>
<totfact> 0.16035203E+03</totfact>
</mgrwt>
</event>
<event>
 6      1 +2.5196620e+02 2.90406800e+02 7.54677100e-03 9.28652600e-02
       21 -1    0    0  501  502 +0.0000000000e+00 +0.0000000000e+00 +3.4050066305e+02 3.4050066305e+02 0.0000000000e+00 0.0000e+00 -1.0000e+00
       21 -1    0    0  504  503 -0.0000000000e+00 -0.0000000000e+00 -8.3474652711e+02 8.3474652711e+02 0.0000000000e+00 0.0000e+00 -1.0000e+00
        6  1    1    2  501    0 -3.1951356153e+02 -1.1616458592e+00 -5.6352426515e+01 3.6768853857e+02 1.7300000000e+02 0.0000e+00 -1.0000e+00
       -6  1    1    2    0  503 +1.8096357800e+02 -6.6173722069e+01 +3.3832006123e+01 2.6115202985e+02 1.7300000000e+02 0.0000e+00 -1.0000e+00
       21  1    1    2  504  505 -2.0011821713e+01 +2.9805453673e+01 -3.2549552158e+02 3.2746934612e+02 0.0000000000e+00 0.0000e+00 1.0000e+00
       21  1    1    2  505  502 +1.5856180525e+02 +3.7529914256e+01 -1.4622992208e+02 2.1893727563e+02 0.0000000000e+00 0.0000e+00 -1.0000e+00
<mgrwt>
<rscale>  4 0.29040683E+03</rscale>
<asrwt>0</asrwt>
<pdfrwt beam="1">  1       21 0.52384718E-01 0.29040683E+03</pdfrwt>
<pdfrwt beam="2">  1       21 0.12842254E+00 0.29040683E+03</pdfrwt>
<totfact> 0.14246874E+03</totfact>
</mgrwt>
</event>
<event>
 6      1 +2.5196620e+02 2.23454900e+02 7.54677100e-03 1.16128000e-01
       21 -1    0    0  501  502 +0.0000000000e+00 +0.0000000000e+00 +8.3987981132e+01 8.3987981132e+01 0.0000000000e+00 0.0000e+00 1.0000e+00
       21 -1    0    0  502  503 -0.0000000000e+00 -0.0000000000e+00 -1.3818545934e+03 1.3818545934e+03 0.0000000000e+00 0.0000e+00 1.0000e+00
        6  1    1    2  501    0 -1.0021477798e+02 -2.5655115890e+01 -2.8626868372e+02 3.5011418991e+02 1.7300000000e+02 0.0000e+00 1.0000e+00
       -6  1    1    2    0  505 +1.8724636977e+02 -4.8936653239e+01 -3.1186625364e+02 4.0576539919e+02 1.7300000000e+02 0.0000e+00 1.0000e+00
       21  1    1    2  504  503 -4.0411027228e+01 +4.6270687587e+01 -4.6120046582e+02 4.6527400242e+02 0.0000000000e+00 0.0000e+00 -1.0000e+00
       21  1    1    2  505  504 -4.6620564565e+01 +2.8321081542e+01 -2.3853120910e+02 2.4468898302e+02 0.0000000000e+00 0.0000e+00 1.0000e+00
<mgrwt>
<rscale>  4 0.22345489E+03</rscale>
<asrwt>0</asrwt>
<pdfrwt beam="1">  1       21 0.12921229E-01 0.22345489E+03</pdfrwt>
<pdfrwt beam="2">  1       21 0.21259300E+00 0.22345489E+03</pdfrwt>
<totfact> 0.55891875E+03</totfact>
</mgrwt>
</event>
<event>
 6      1 +2.5196620e+02 3.20879000e+02 7.54677100e-03 1.15679100e-01
       21 -1    0    0  503  502 +0.0000000000e+00 +0.0000000000e+00 +4.8394372023e+02 4.8394372023e+02 0.0000000000e+00 0.0000e+00 -1.0000e+00
       21 -1    0    0  505  503 -0.0000000000e+00 -0.0000000000e+00 -3.9548852050e+02 3.9548852050e+02 0.0000000000e+00 0.0000e+00 -1.0000e+00
        6  1    1    2  501    0 +1.7844258007e+02 -1.8767953196e+02 -1.2743075413e+02 3.3650105230e+02 1.7300000000e+02 0.0000e+00 -1.0000e+00
       -6  1    1    2    0  504 -3.2862918367e+00 -2.2074020884e+01 +1.3535984232e+02 2.2079254749e+02 1.7300000000e+02 0.0000e+00 -1.0000e+00
       21  1    1    2  504  502 -1.7870557698e+02 +2.2986248051e+02 +7.1468904916e+01 2.9980034616e+02 0.0000000000e+00 0.0000e+00 -1.0000e+00
       21  1    1    2  505  501 +3.5492887432e+00 -2.0108927662e+01 +9.0572066161e+00 2.2338294787e+01 0.0000000000e+00 0.0000e+00 1.0000e+00
<mgrwt>
<rscale>  4 0.27596448E+03</rscale>
<asrwt>0</asrwt>
<pdfrwt beam="1">  1       21 0.74452880E-01 0.32087897E+03</pdfrwt>
<pdfrwt beam="2">  1       21 0.60844388E-01 0.32087897E+03</pdfrwt>
<totfact> 0.37446986E+03</totfact>
</mgrwt>
</event>
<event>
 6      1 +2.5196620e+02 2.29978200e+02 7.54677100e-03 9.49153200e-02
       21 -1    0    0  505  502 +0.0000000000e+00 +0.0000000000e+00 +8.2647568426e+01 8.2647568426e+01 0.0000000000e+00 0.0000e+00 1.0000e+00
       21 -1    0    0  501  503 -0.0000000000e+00 -0.0000000000e+00 -1.1879660003e+03 1.1879660003e+03 0.0000000000e+00 0.0000e+00 1.0000e+00
        6  1    1    2  501    0 +1.0033343455e+02 -1.4182445194e+02 -5.2340972274e+02 5.7798590909e+02 1.7300000000e+02 0.0000e+00 1.0000e+00
       -6  1    1    2    0  502 -6.0466275702e+01 +1.3231841575e+02 -3.3071850084e+02 4.0058464829e+02 1.7300000000e+02 0.0000e+00 1.0000e+00
       21  1    1    2  504  503 -1.7254847181e+01 +4.9323277328e+01 -2.3901722494e+02 2.4466252115e+02 0.0000000000e+00 0.0000e+00 1.0000e+00
       21  1    1    2  505  504 -2.2612311669e+01 -3.9817241136e+01 -1.2172983401e+01 4.7380490242e+01 0.0000000000e+00 0.0000e+00 1.0000e+00
<mgrwt>
<rscale>  4 0.22997817E+03</rscale>
<asrwt>0</asrwt>
<pdfrwt beam="1">  1       21 0.12715012E-01 0.22997817E+03</pdfrwt>
<pdfrwt beam="2">  1       21 0.18276398E+00 0.22997817E+03</pdfrwt>
<totfact> 0.89558890E+03</totfact>
</mgrwt>
</event>
<event>
 6      1 +2.5196620e+02 6.18528800e+02 7.54677100e-03 1.01993900e-01
       21 -1    0    0  505  502 +0.0000000000e+00 +0.0000000000e+00 +1.9399443598e+03 1.9399443598e+03 0.0000000000e+00 0.0000e+00 1.0000e+00
       21 -1    0    0  502  503 -0.0000000000e+00 -0.0000000000e+00 -4.2642109750e+02 4.2642109750e+02 0.0000000000e+00 0.0000e+00 -1.0000e+00
        6  1    1    2  501    0 +1.6221984329e+02 -3.3731055767e+02 -2.5233583425e+01 4.1310945717e+02 1.7300000000e+02 0.0000e+00 -1.0000e+00
       -6  1    1    2    0  503 +6.5413545395e+01 -1.0618396767e+02 -6.8089469667e+01 2.2387305061e+02 1.7300000000e+02 0.0000e+00 1.0000e+00
       21  1    1    2  504  501 +4.9531679856e+01 +1.3582461632e+02 +1.2615882273e+02 1.9187955144e+02 0.0000000000e+00 0.0000e+00 -1.0000e+00
       21  1    1    2  505  504 -2.7716506854e+02 +3.0766990902e+02 +1.4806874926e+03 1.5375033980e+03 0.0000000000e+00 0.0000e+00 1.0000e+00
<mgrwt>
<rscale>  4 0.61852875E+03</rscale>
<asrwt>0</asrwt>
<pdfrwt beam="1">  1       21 0.29845297E+00 0.61852875E+03</pdfrwt>
<pdfrwt beam="2">  1       21 0.65603247E-01 0.61852875E+03</pdfrwt>
<totfact> 0.51748904E+01</totfact>
</mgrwt>
</event>
<event>
 6      1 +2.5196620e+02 2.36648600e+02 7.54677100e-03 1.06301000e-01
       21 -1    0    0  505  502 +0.0000000000e+00 +0.0000000000e+00 +7.3176540448e+02 7.3176540448e+02 0.0000000000e+00 0.0000e+00 -1.0000e+00
       21 -1    0    0  504  503 -0.0000000000e+00 -0.0000000000e+00 -1.5478507746e+02 1.5478507746e+02 0.0000000000e+00 0.0000e+00 1.0000e+00
        6  1    1    2  501    0 +1.2150442519e+02 +8.4218627089e+01 +3.3670784143e+01 2.3004091852e+02 1.7300000000e+02 0.0000e+00 1.0000e+00
       -6  1    1    2    0  503 -1.9823032987e+02 -7.2564825803e+01 +3.9065918306e+02 4.7655483938e+02 1.7300000000e+02 0.0000e+00 -1.0000e+00
       21  1    1    2  504  502 +6.7084542488e+01 -2.9386440141e+01 +1.0323001825e+02 1.2657146350e+02 0.0000000000e+00 0.0000e+00 1.0000e+00
       21  1    1    2  505  501 +9.6413621896e+00 +1.7732638855e+01 +4.9420341562e+01 5.3383260538e+01 0.0000000000e+00 0.0000e+00 -1.0000e+00
<mgrwt>
<rscale>  4 0.23664859E+03</rscale>
<asrwt>0</asrwt>
<pdfrwt beam="1">  1       21 0.11257929E+00 0.23664859E+03</pdfrwt>
<pdfrwt beam="2">  1       21 0.23813089E-01 0.23664859E+03</pdfrwt>
<totfact> 0.99624573E+03</totfact>
</mgrwt>
</event>
<event>
 6      1 +2.5196620e+02 2.64578600e+02 7.54677100e-03 1.06301000e-01
       21 -1    0    0  505  502 +0.0000000000e+00 +0.0000000000e+00 +1.3222348573e+03 1.3222348573e+03 0.0000000000e+00 0.0000e+00 1.0000e+00
       21 -1    0    0  504  503 -0.0000000000e+00 -0.0000000000e+00 -1.5736324498e+02 1.5736324498e+02 0.0000000000e+00 0.0000e+00 -1.0000e+00
        6  1    1    2  501    0 -2.7517662087e+01 -2.6755691275e+01 +7.8149906149e+01 1.9367368581e+02 1.7300000000e+02 0.0000e+00 -1.0000e+00
       -6  1    1    2    0  502 -1.7696828475e+02 -1.4320045374e+02 +7.2363667226e+02 7.7807658826e+02 1.7300000000e+02 0.0000e+00 -1.0000e+00
       21  1    1    2  504  501 +6.4361237054e+01 +5.7308463234e+01 -1.6585675498e+01 8.7759406476e+01 0.0000000000e+00 0.0000e+00 -1.0000e+00
       21  1    1    2  505  503 +1.4012470978e+02 +1.1264768178e+02 +3.7967070937e+02 4.2008842171e+02 0.0000000000e+00 0.0000e+00 1.0000e+00
<mgrwt>
<rscale>  4 0.23800092E+03</rscale>
<asrwt>0</asrwt>
<pdfrwt beam="1">  1       21 0.20342074E+00 0.26457856E+03</pdfrwt>
<pdfrwt beam="2">  1       21 0.24209731E-01 0.26457856E+03</pdfrwt>
<totfact> 0.19263128E+03</totfact>
</mgrwt>
</event>
<event>
 6      1 +2.5196620e+02 3.29264900e+02 7.54677100e-03 1.15334700e-01
       21 -1    0    0  501  502 +0.0000000000e+00 +0.0000000000e+00 +1.0251550023e+03 1.0251550023e+03 0.0000000000e+00 0.0000e+00 -1.0000e+00
       21 -1    0    0  502  503 -0.0000000000e+00 -0.0000000000e+00 -7.1676139639e+02 7.1676139639e+02 0.0000000000e+00 0.0000e+00 -1.0000e+00
        6  1    1    2  501    0 +2.0662405659e+02 +1.9249427897e+02 +9.4890747937e+02 1.0050382841e+03 1.7300000000e+02 0.0000e+00 -1.0000e+00
       -6  1    1    2    0  504 -1.6419802531e+02 -1.7094028936e+02 -5.0473782231e+02 5.8384145392e+02 1.7300000000e+02 0.0000e+00 -1.0000e+00
       21  1    1    2  504  505 -2.1061840953e+01 -1.4013247236e+01 -1.3490247879e+01 2.8669827873e+01 0.0000000000e+00 0.0000e+00 1.0000e+00
       21  1    1    2  505  503 -2.1364190322e+01 -7.5407423723e+00 -1.2228580324e+02 1.2436683279e+02 0.0000000000e+00 0.0000e+00 1.0000e+00
<mgrwt>
<rscale>  4 0.32926493E+03</rscale>
<asrwt>0</asrwt>
<pdfrwt beam="1">  1       21 0.15771616E+00 0.32926493E+03</pdfrwt>
<pdfrwt beam="2">  1       21 0.11027098E+00 0.32926493E+03</pdfrwt>
<totfact> 0.14819046E+02</totfact>
</mgrwt>
</event>
<event>
 6      1 +2.5196620e+02 3.22231900e+02 7.54677100e-03 1.16128000e-01
       21 -1    0    0  501  502 +0.0000000000e+00 +0.0000000000e+00 +6.0406702092e+02 6.0406702092e+02 0.0000000000e+00 0.0000e+00 -1.0000e+00
       21 -1    0    0  504  503 -0.0000000000e+00 -0.0000000000e+00 -4.4943698176e+02 4.4943698176e+02 0.0000000000e+00 0.0000e+00 -1.0000e+00
        6  1    1    2  501    0 +1.3489763176e+02 +1.7834973073e+01 +3.0137226651e+02 3.7318855869e+02 1.7300000000e+02 0.0000e+00 1.0000e+00
       -6  1    1    2    0  503 +4.2320360151e+01 -2.4594475412e+02 +7.3868797068e+01 3.1251469428e+02 1.7300000000e+02 0.0000e+00 -1.0000e+00
       21  1    1    2  504  505 -1.2963138231e+02 +1.9752070215e+02 -1.9182379628e+02 3.0432727758e+02 0.0000000000e+00 0.0000e+00 -1.0000e+00
       21  1    1    2  505  502 -4.7586609600e+01 +3.0589078896e+01 -2.8787228133e+01 6.3473472132e+01 0.0000000000e+00 0.0000e+00 -1.0000e+00
<mgrwt>
<rscale>  4 0.29294218E+03</rscale>
<asrwt>0</asrwt>
<pdfrwt beam="1">  1       21 0.92933388E-01 0.32223189E+03</pdfrwt>
<pdfrwt beam="2">  1       21 0.69144151E-01 0.32223189E+03</pdfrwt>
<totfact> 0.16914308E+03</totfact>
</mgrwt>
</event>
<event>
 6      1 +2.5196620e+02 2.19363000e+02 7.54677100e-03 1.16128000e-01
       21 -1    0    0  501  502 +0.0000000000e+00 +0.0000000000e+00 +1.8998707683e+02 1.8998707683e+02 0.0000000000e+00 0.0000e+00 1.0000e+00
       21 -1    0    0  505  503 -0.0000000000e+00 -0.0000000000e+00 -3.9751462692e+02 3.9751462692e+02 0.0000000000e+00 0.0000e+00 1.0000e+00
        6  1    1    2  501    0 -1.0372486809e+02 +2.2458528982e+00 -9.4543332432e+01 2.2278090991e+02 1.7300000000e+02 0.0000e+00 1.0000e+00
       -6  1    1    2    0  503 +1.5393619559e+02 +6.4189512249e+01 -3.1593435068e+01 2.4237118421e+02 1.7300000000e+02 0.0000e+00 1.0000e+00
       21  1    1    2  504  502 -3.6703315839e+01 -2.9465958196e+01 -6.3684990184e+01 7.9190618514e+01 0.0000000000e+00 0.0000e+00 1.0000e+00
       21  1    1    2  505  504 -1.3508011662e+01 -3.6969406951e+01 -1.7705792399e+01 4.3158991113e+01 0.0000000000e+00 0.0000e+00 1.0000e+00
<mgrwt>
<rscale>  4 0.21936301E+03</rscale>
<asrwt>0</asrwt>
<pdfrwt beam="1">  1       21 0.29228781E-01 0.21936301E+03</pdfrwt>
<pdfrwt beam="2">  1       21 0.61156096E-01 0.21936301E+03</pdfrwt>
<totfact> 0.27475037E+04</totfact>
</mgrwt>
</event>
<event>
 6      1 +2.5196620e+02 1.83044300e+02 7.54677100e-03 1.16321900e-01
       21 -1    0    0  505  502 +0.0000000000e+00 +0.0000000000e+00 +1.5557044109e+02 1.5557044109e+02 0.0000000000e+00 0.0000e+00 -1.0000e+00
       21 -1    0    0  504  503 -0.0000000000e+00 -0.0000000000e+00 -9.5596136060e+02 9.5596136060e+02 0.0000000000e+00 0.0000e+00 -1.0000e+00
        6  1    1    2  501    0 +8.0584549488e+01 +9.4562360986e+01 -9.8143146811e+01 2.3451436416e+02 1.7300000000e+02 0.0000e+00 -1.0000e+00
       -6  1    1    2    0  502 -1.6299633536e+01 -1.5863577131e+01 -1.6423351213e+01 1.7525997146e+02 1.7300000000e+02 0.0000e+00 -1.0000e+00
       21  1    1    2  504  501 -8.0909397092e+01 -9.5264291603e+01 -5.9103276657e+02 6.0410375513e+02 0.0000000000e+00 0.0000e+00 -1.0000e+00
       21  1    1    2  505  503 +1.6624481140e+01 +1.6565507748e+01 -9.4791654910e+01 9.7653710942e+01 0.0000000000e+00 0.0000e+00 1.0000e+00
<mgrwt>
<rscale>  4 0.18304429E+03</rscale>
<asrwt>0</asrwt>
<pdfrwt beam="1">  1       21 0.23933914E-01 0.18304429E+03</pdfrwt>
<pdfrwt beam="2">  1       21 0.14707098E+00 0.18304429E+03</pdfrwt>
<totfact> 0.52228396E+03</totfact>
</mgrwt>
</event>
<event>
 6      1 +2.5196620e+02 2.29366800e+02 7.54677100e-03 9.49153200e-02
       21 -1    0    0  505  502 +0.0000000000e+00 +0.0000000000e+00 +8.0683063698e+01 8.0683063698e+01 0.0000000000e+00 0.0000e+00 1.0000e+00
       21 -1    0    0  501  503 -0.0000000000e+00 -0.0000000000e+00 -1.4215760677e+03 1.4215760677e+03 0.0000000000e+00 0.0000e+00 -1.0000e+00
        6  1    1    2  501    0 +1.7947208222e+02 -1.5198231494e+02 -5.2953569271e+02 6.0468661487e+02 1.7300000000e+02 0.0000e+00 1.0000e+00
       -6  1    1    2    0  502 -8.0976534794e+01 +6.1104701064e+01 -2.9975345047e+02 3.6065511884e+02 1.7300000000e+02 0.0000e+00 1.0000e+00
       21  1    1    2  504  503 -1.7449752535e+01 +4.1063931367e+01 -3.1895585868e+02 3.2206145393e+02 0.0000000000e+00 0.0000e+00 -1.0000e+00
       21  1    1    2  505  504 -8.1045794894e+01 +4.9813682510e+01 -1.9264800214e+02 2.1485594375e+02 0.0000000000e+00 0.0000e+00 -1.0000e+00
<mgrwt>
<rscale>  4 0.22936678E+03</rscale>
<asrwt>0</asrwt>
<pdfrwt beam="1">  1       21 0.12412778E-01 0.22936678E+03</pdfrwt>
<pdfrwt beam="2">  1       21 0.21870402E+00 0.22936678E+03</pdfrwt>
<totfact> 0.54759791E+03</totfact>
</mgrwt>
</event>
<event>
 6      1 +2.5196620e+02 3.45409500e+02 7.54677100e-03 9.49153200e-02
       21 -1    0    0  505  502 +0.0000000000e+00 +0.0000000000e+00 +6.5694258749e+02 6.5694258749e+02 0.0000000000e+00 0.0000e+00 -1.0000e+00
       21 -1    0    0  504  503 -0.0000000000e+00 -0.0000000000e+00 -1.2185135600e+03 1.2185135600e+03 0.0000000000e+00 0.0000e+00 -1.0000e+00
        6  1    1    2  501    0 -1.5448752512e+02 -2.1368875715e+02 -1.8181485873e+02 3.6402599249e+02 1.7300000000e+02 0.0000e+00 1.0000e+00
       -6  1    1    2    0  502 +3.7044109835e+02 +1.4033254142e+01 -6.5647645681e+02 7.7350751639e+02 1.7300000000e+02 0.0000e+00 -1.0000e+00
       21  1    1    2  504  501 -2.3738439814e+01 +5.8570953656e+01 -1.9737482073e+02 2.0724596497e+02 0.0000000000e+00 0.0000e+00 1.0000e+00
       21  1    1    2  505  503 -1.9221513342e+02 +1.4108454935e+02 +4.7409516379e+02 5.3067667361e+02 0.0000000000e+00 0.0000e+00 -1.0000e+00
<mgrwt>
<rscale>  4 0.34540947E+03</rscale>
<asrwt>0</asrwt>
<pdfrwt beam="1">  1       21 0.10106809E+00 0.34540947E+03</pdfrwt>
<pdfrwt beam="2">  1       21 0.18746362E+00 0.34540947E+03</pdfrwt>
<totfact> 0.11096929E+02</totfact>
</mgrwt>
</event>
<event>
 6      1 +2.5196620e+02 1.74986000e+02 7.54677100e-03 1.16321900e-01
       21 -1    0    0  503  502 +0.0000000000e+00 +0.0000000000e+00 +3.3897124924e+02 3.3897124924e+02 0.0000000000e+00 0.0000e+00 1.0000e+00
       21 -1    0    0  505  503 -0.0000000000e+00 -0.0000000000e+00 -6.8041213484e+02 6.8041213484e+02 0.0000000000e+00 0.0000e+00 -1.0000e+00
        6  1    1    2  501    0 -2.9905535329e+01 -2.4617108984e+01 -1.9859682293e+02 2.6621427681e+02 1.7300000000e+02 0.0000e+00 1.0000e+00
       -6  1    1    2    0  502 -2.9866514006e+01 -1.5050993846e+01 +2.7239088466e+02 3.2441383312e+02 1.7300000000e+02 0.0000e+00 1.0000e+00
       21  1    1    2  504  501 +2.3527810931e+01 +5.2744795819e+01 -1.4996934602e+02 1.6070586834e+02 0.0000000000e+00 0.0000e+00 -1.0000e+00
       21  1    1    2  505  504 +3.6244238403e+01 -1.3076692988e+01 -2.6526560131e+02 2.6804940581e+02 0.0000000000e+00 0.0000e+00 -1.0000e+00
<mgrwt>
<rscale>  4 0.17498602E+03</rscale>
<asrwt>0</asrwt>
<pdfrwt beam="1">  1       21 0.52149423E-01 0.17498602E+03</pdfrwt>
<pdfrwt beam="2">  1       21 0.10467879E+00 0.17498602E+03</pdfrwt>
<totfact> 0.26097986E+03</totfact>
</mgrwt>
</event>
<event>
 6      1 +2.5196620e+02 4.46423600e+02 7.54677100e-03 1.12691600e-01
       21 -1    0    0  501  502 +0.0000000000e+00 +0.0000000000e+00 +3.2556001744e+02 3.2556001744e+02 0.0000000000e+00 0.0000e+00 1.0000e+00
       21 -1    0    0  504  503 -0.0000000000e+00 -0.0000000000e+00 -3.2978506163e+03 3.2978506163e+03 0.0000000000e+00 0.0000e+00 -1.0000e+00
        6  1    1    2  501    0 +1.9948659881e+02 -3.3801921614e+02 -5.0222869783e+02 6.6046541053e+02 1.7300000000e+02 0.0000e+00 1.0000e+00
       -6  1    1    2    0  503 -4.2529876201e+02 -4.9150870228e+01 -2.4427636079e+03 2.4860245150e+03 1.7300000000e+02 0.0000e+00 -1.0000e+00
       21  1    1    2  504  505 +2.2934776304e+02 +3.3564309565e+02 -6.6707311725e+01 4.1195454786e+02 0.0000000000e+00 0.0000e+00 1.0000e+00
       21  1    1    2  505  502 -3.5355998416e+00 +5.1526990725e+01 +3.9409018629e+01 6.4966160336e+01 0.0000000000e+00 0.0000e+00 -1.0000e+00
<mgrwt>
<rscale>  4 0.43882350E+03</rscale>
<asrwt>0</asrwt>
<pdfrwt beam="1">  1       21 0.50086159E-01 0.44642361E+03</pdfrwt>
<pdfrwt beam="2">  1       21 0.50736161E+00 0.44642361E+03</pdfrwt>
<totfact> 0.45295207E+00</totfact>
</mgrwt>
</event>
<event>
 6      1 +2.5196620e+02 1.79425000e+02 7.54677100e-03 9.49153200e-02
       21 -1    0    0  504  502 +0.0000000000e+00 +0.0000000000e+00 +4.3903555411e+02 4.3903555411e+02 0.0000000000e+00 0.0000e+00 -1.0000e+00
       21 -1    0    0  501  503 -0.0000000000e+00 -0.0000000000e+00 -2.4413791347e+02 2.4413791347e+02 0.0000000000e+00 0.0000e+00 1.0000e+00
        6  1    1    2  501    0 +3.8373583346e+01 -2.4032037703e+01 +2.0957905398e+02 2.7550399381e+02 1.7300000000e+02 0.0000e+00 -1.0000e+00
       -6  1    1    2    0  505 -2.7144766198e+01 +8.8795559327e+01 +4.7167473013e+01 2.0192884935e+02 1.7300000000e+02 0.0000e+00 1.0000e+00
       21  1    1    2  504  503 +4.7120540552e+00 -8.0671636976e+01 -1.1926635140e+02 1.4406449612e+02 0.0000000000e+00 0.0000e+00 1.0000e+00
       21  1    1    2  505  502 -1.5940871203e+01 +1.5908115353e+01 +5.7417465053e+01 6.1676128299e+01 0.0000000000e+00 0.0000e+00 -1.0000e+00
<mgrwt>
<rscale>  4 0.17942505E+03</rscale>
<asrwt>0</asrwt>
<pdfrwt beam="1">  1       21 0.67543931E-01 0.17942505E+03</pdfrwt>
<pdfrwt beam="2">  1       21 0.37559679E-01 0.17942505E+03</pdfrwt>
<totfact> 0.13820302E+04</totfact>
</mgrwt>
</event>
<event>
 6      1 +2.5196620e+02 4.26095400e+02 7.54677100e-03 9.49153200e-02
       21 -1    0    0  503  502 +0.0000000000e+00 +0.0000000000e+00 +1.3846771602e+03 1.3846771602e+03 0.0000000000e+00 0.0000e+00 1.0000e+00
       21 -1    0    0  504  503 -0.0000000000e+00 -0.0000000000e+00 -3.7753500459e+02 3.7753500459e+02 0.0000000000e+00 0.0000e+00 1.0000e+00
        6  1    1    2  501    0 +3.0770074464e+02 +8.0277848413e+01 +2.3048030935e+02 4.2915551284e+02 1.7300000000e+02 0.0000e+00 1.0000e+00
       -6  1    1    2    0  505 -4.4152551449e+02 +5.9695634158e+01 +8.0071797334e+02 9.3251628485e+02 1.7300000000e+02 0.0000e+00 1.0000e+00
       21  1    1    2  504  501 +1.4121292323e+02 -1.6078384084e+02 -1.5723231393e+02 2.6554572809e+02 0.0000000000e+00 0.0000e+00 1.0000e+00
       21  1    1    2  505  502 -7.3881533843e+00 +2.0810358267e+01 +1.3317618682e+02 1.3499463900e+02 0.0000000000e+00 0.0000e+00 1.0000e+00
<mgrwt>
<rscale>  4 0.42609542E+03</rscale>
<asrwt>0</asrwt>
<pdfrwt beam="1">  1       21 0.21302725E+00 0.42609542E+03</pdfrwt>
<pdfrwt beam="2">  1       21 0.58082309E-01 0.42609542E+03</pdfrwt>
<totfact> 0.25298136E+02</totfact>
</mgrwt>
</event>
<event>
 6      1 +2.5196620e+02 2.69104400e+02 7.54677100e-03 9.49153200e-02
       21 -1    0    0  505  502 +0.0000000000e+00 +0.0000000000e+00 +6.2567220188e+02 6.2567220188e+02 0.0000000000e+00 0.0000e+00 -1.0000e+00
       21 -1    0    0  504  503 -0.0000000000e+00 -0.0000000000e+00 -1.2940637488e+03 1.2940637488e+03 0.0000000000e+00 0.0000e+00 1.0000e+00
        6  1    1    2  501    0 +6.0027322203e+01 +2.2125937007e+02 -6.1194367730e+02 6.7599042334e+02 1.7300000000e+02 0.0000e+00 1.0000e+00
       -6  1    1    2    0  502 +5.8545268107e+01 +2.0171408674e+00 +4.2008523857e+02 4.5807447532e+02 1.7300000000e+02 0.0000e+00 -1.0000e+00
       21  1    1    2  504  501 -4.5117112125e+01 -1.8977873111e+02 -6.0403885543e+02 6.3475543279e+02 0.0000000000e+00 0.0000e+00 1.0000e+00
       21  1    1    2  505  503 -7.3455478184e+01 -3.3497779826e+01 +1.2750574728e+02 1.5091561920e+02 0.0000000000e+00 0.0000e+00 1.0000e+00
<mgrwt>
<rscale>  4 0.24181523E+03</rscale>
<asrwt>0</asrwt>
<pdfrwt beam="1">  1       21 0.96257262E-01 0.26910436E+03</pdfrwt>
<pdfrwt beam="2">  1       21 0.19908673E+00 0.26910436E+03</pdfrwt>
<totfact> 0.11150193E+02</totfact>
</mgrwt>
</event>
<event>
 6      1 +2.5196620e+02 1.81481600e+02 7.54677100e-03 9.49153200e-02
       21 -1    0    0  504  502 +0.0000000000e+00 +0.0000000000e+00 +3.2655715078e+02 3.2655715078e+02 0.0000000000e+00 0.0000e+00 1.0000e+00
       21 -1    0    0  501  503 -0.0000000000e+00 -0.0000000000e+00 -4.5555366519e+02 4.5555366519e+02 0.0000000000e+00 0.0000e+00 1.0000e+00
        6  1    1    2  501    0 -4.8688660660e+01 -9.5950085174e+01 -6.9014179693e+01 2.1510221180e+02 1.7300000000e+02 0.0000e+00 1.0000e+00
       -6  1    1    2    0  505 +4.6483049322e+01 +6.1132454190e+00 +2.9748393998e+01 1.8169208180e+02 1.7300000000e+02 0.0000e+00 1.0000e+00
       21  1    1    2  504  503 +5.2002616941e+01 +6.9930811206e+01 -2.2420337781e+02 2.4054468431e+02 0.0000000000e+00 0.0000e+00 1.0000e+00
       21  1    1    2  505  502 -4.9797005603e+01 +1.9906028549e+01 +1.3447264910e+02 1.4477183806e+02 0.0000000000e+00 0.0000e+00 -1.0000e+00
<mgrwt>
<rscale>  4 0.18148155E+03</rscale>
<asrwt>0</asrwt>
<pdfrwt beam="1">  1       21 0.50239562E-01 0.18148155E+03</pdfrwt>
<pdfrwt beam="2">  1       21 0.70085178E-01 0.18148155E+03</pdfrwt>
<totfact> 0.70296838E+03</totfact>
</mgrwt>
</event>
<event>
 6      1 +2.5196620e+02 2.08956900e+02 7.54677100e-03 1.16321900e-01
       21 -1    0    0  504  502 +0.0000000000e+00 +0.0000000000e+00 +1.2935930307e+03 1.2935930307e+03 0.0000000000e+00 0.0000e+00 -1.0000e+00
       21 -1    0    0  501  503 -0.0000000000e+00 -0.0000000000e+00 -2.0319330324e+02 2.0319330324e+02 0.0000000000e+00 0.0000e+00 -1.0000e+00
        6  1    1    2  501    0 -1.6376645431e+02 -5.8601865368e+01 +2.8169260144e+02 3.7354163341e+02 1.7300000000e+02 0.0000e+00 -1.0000e+00
       -6  1    1    2    0  502 +1.0584812710e+02 -2.1034395604e+01 +9.3209726522e+02 9.5413866059e+02 1.7300000000e+02 0.0000e+00 -1.0000e+00
       21  1    1    2  504  505 +6.8222595221e+01 +6.1297764844e+01 -8.3607893703e+01 1.2410486841e+02 0.0000000000e+00 0.0000e+00 -1.0000e+00
       21  1    1    2  505  503 -1.0304268012e+01 +1.8338496128e+01 -3.9782245513e+01 4.5001171513e+01 0.0000000000e+00 0.0000e+00 -1.0000e+00
<mgrwt>
<rscale>  4 0.20895690E+03</rscale>
<asrwt>0</asrwt>
<pdfrwt beam="1">  1       21 0.19901431E+00 0.20895690E+03</pdfrwt>
<pdfrwt beam="2">  1       21 0.31260509E-01 0.20895690E+03</pdfrwt>
<totfact> 0.13166343E+03</totfact>
</mgrwt>
</event>
<event>
 6      1 +2.5196620e+02 2.02501400e+02 7.54677100e-03 9.49153200e-02
       21 -1    0    0  505  502 +0.0000000000e+00 +0.0000000000e+00 +8.8921193638e+02 8.8921193638e+02 0.0000000000e+00 0.0000e+00 1.0000e+00
       21 -1    0    0  501  503 -0.0000000000e+00 -0.0000000000e+00 -2.5916223840e+02 2.5916223840e+02 0.0000000000e+00 0.0000e+00 -1.0000e+00
        6  1    1    2  501    0 +8.7185851141e+01 +5.4937194463e+01 +4.3902368473e+01 2.0609678778e+02 1.7300000000e+02 0.0000e+00 -1.0000e+00
       -6  1    1    2    0  502 -8.6250620941e+01 -5.0866071076e+01 -2.7972777874e+01 2.0183657523e+02 1.7300000000e+02 0.0000e+00 -1.0000e+00
       21  1    1    2  504  503 -2.5509068061e+01 -1.0718713656e+01 -5.9878088734e+01 6.5962026092e+01 0.0000000000e+00 0.0000e+00 -1.0000e+00
       21  1    1    2  505  504 +2.4573837862e+01 +6.6475902683e+00 +6.7399819611e+02 6.7447878567e+02 0.0000000000e+00 0.0000e+00 1.0000e+00
<mgrwt>
<rscale>  4 0.20250136E+03</rscale>
<asrwt>0</asrwt>
<pdfrwt beam="1">  1       21 0.13680183E+00 0.20250136E+03</pdfrwt>
<pdfrwt beam="2">  1       21 0.39871114E-01 0.20250136E+03</pdfrwt>
<totfact> 0.22818595E+03</totfact>
</mgrwt>
</event>
<event>
 6      1 +2.5196620e+02 2.13362300e+02 7.54677100e-03 9.49153200e-02
       21 -1    0    0  505  502 +0.0000000000e+00 +0.0000000000e+00 +1.3705367171e+03 1.3705367171e+03 0.0000000000e+00 0.0000e+00 1.0000e+00
       21 -1    0    0  501  503 -0.0000000000e+00 -0.0000000000e+00 -2.1653204417e+02 2.1653204417e+02 0.0000000000e+00 0.0000e+00 1.0000e+00
        6  1    1    2  501    0 -1.1131286052e+02 +6.0388142701e+01 +2.4011976083e+02 3.2190647747e+02 1.7300000000e+02 0.0000e+00 -1.0000e+00
       -6  1    1    2    0  502 +1.6104675499e+02 +8.5779019824e+01 +8.2217562066e+02 8.5976499623e+02 1.7300000000e+02 0.0000e+00 1.0000e+00
       21  1    1    2  504  503 +1.1056999565e+01 -1.3097760490e+02 -1.2404189769e+02 1.8073124414e+02 0.0000000000e+00 0.0000e+00 1.0000e+00
       21  1    1    2  505  504 -6.0790894036e+01 -1.5189557620e+01 +2.1575118915e+02 2.2466604345e+02 0.0000000000e+00 0.0000e+00 -1.0000e+00
<mgrwt>
<rscale>  4 0.21336235E+03</rscale>
<asrwt>0</asrwt>
<pdfrwt beam="1">  1       21 0.21085180E+00 0.21336235E+03</pdfrwt>
<pdfrwt beam="2">  1       21 0.33312623E-01 0.21336235E+03</pdfrwt>
<totfact> 0.97205812E+02</totfact>
</mgrwt>
</event>
<event>
 6      1 +2.5196620e+02 1.82786300e+02 7.54677100e-03 1.14954000e-01
       21 -1    0    0  504  502 +0.0000000000e+00 +0.0000000000e+00 +1.7918000189e+03 1.7918000189e+03 0.0000000000e+00 0.0000e+00 1.0000e+00
       21 -1    0    0  502  503 -0.0000000000e+00 -0.0000000000e+00 -2.3896173806e+02 2.3896173806e+02 0.0000000000e+00 0.0000e+00 1.0000e+00
        6  1    1    2  501    0 +8.6419938410e+01 -8.7403166725e+01 +2.5144550520e+02 3.2903124683e+02 1.7300000000e+02 0.0000e+00 -1.0000e+00
       -6  1    1    2    0  503 +7.3785526441e+01 +1.9331835436e+01 -1.4367337799e+02 2.3746381475e+02 1.7300000000e+02 0.0000e+00 1.0000e+00
       21  1    1    2  504  505 -5.1829281862e+01 -4.4705834315e+01 +2.5737551912e+02 2.6632131706e+02 0.0000000000e+00 0.0000e+00 1.0000e+00
       21  1    1    2  505  501 -1.0837618299e+02 +1.1277716560e+02 +1.1876906345e+03 1.1979453783e+03 0.0000000000e+00 0.0000e+00 1.0000e+00
<mgrwt>
<rscale>  4 0.18278627E+03</rscale>
<asrwt>0</asrwt>
<pdfrwt beam="1">  1       21 0.27566153E+00 0.18278627E+03</pdfrwt>
<pdfrwt beam="2">  1       21 0.36763345E-01 0.18278627E+03</pdfrwt>
<totfact> 0.34133957E+02</totfact>
</mgrwt>
</event>
<event>
 6      1 +2.5196620e+02 2.80959100e+02 7.54677100e-03 9.49153200e-02
       21 -1    0    0  503  502 +0.0000000000e+00 +0.0000000000e+00 +1.1548369225e+03 1.1548369225e+03 0.0000000000e+00 0.0000e+00 1.0000e+00
       21 -1    0    0  504  503 -0.0000000000e+00 -0.0000000000e+00 -1.7157143821e+02 1.7157143821e+02 0.0000000000e+00 0.0000e+00 -1.0000e+00
        6  1    1    2  501    0 -1.2350402759e+02 +1.3718260353e+02 +1.7849405865e+02 3.0961498755e+02 1.7300000000e+02 0.0000e+00 -1.0000e+00
       -6  1    1    2    0  505 +2.4192378566e+02 -7.9938510608e+01 +5.4912613355e+02 6.2959176781e+02 1.7300000000e+02 0.0000e+00 1.0000e+00
       21  1    1    2  504  501 -9.1464582840e+01 -6.6040844618e+00 -2.9509303197e+01 9.6333705528e+01 0.0000000000e+00 0.0000e+00 -1.0000e+00
       21  1    1    2  505  502 -2.6955175230e+01 -5.0640008465e+01 +2.8515459531e+02 2.9086789984e+02 0.0000000000e+00 0.0000e+00 1.0000e+00
<mgrwt>
<rscale>  4 0.28095910E+03</rscale>
<asrwt>0</asrwt>
<pdfrwt beam="1">  1       21 0.17766721E+00 0.28095910E+03</pdfrwt>
<pdfrwt beam="2">  1       21 0.26395607E-01 0.28095910E+03</pdfrwt>
<totfact> 0.23972283E+03</totfact>
</mgrwt>
</event>
<event>
 6      1 +2.5196620e+02 2.03469700e+02 7.54677100e-03 9.49153200e-02
       21 -1    0    0  505  502 +0.0000000000e+00 +0.0000000000e+00 +3.3145146206e+02 3.3145146206e+02 0.0000000000e+00 0.0000e+00 1.0000e+00
       21 -1    0    0  501  503 -0.0000000000e+00 -0.0000000000e+00 -4.7020672978e+02 4.7020672978e+02 0.0000000000e+00 0.0000e+00 1.0000e+00
        6  1    1    2  501    0 -1.3959656916e+00 -8.4281188005e+01 -1.5752889219e+02 2.4869583681e+02 1.7300000000e+02 0.0000e+00 1.0000e+00
       -6  1    1    2    0  502 -4.0647240562e+01 +1.0478712039e+02 +2.4200690027e+02 3.1800767058e+02 1.7300000000e+02 0.0000e+00 1.0000e+00
       21  1    1    2  504  503 +2.1537698824e+01 -1.3179539028e+01 -2.0501341616e+02 2.0656251723e+02 0.0000000000e+00 0.0000e+00 -1.0000e+00
       21  1    1    2  505  504 +2.0505507430e+01 -7.3263933597e+00 -1.8219859635e+01 2.8392167225e+01 0.0000000000e+00 0.0000e+00 -1.0000e+00
<mgrwt>
<rscale>  4 0.20346968E+03</rscale>
<asrwt>0</asrwt>
<pdfrwt beam="1">  1       21 0.50992532E-01 0.20346968E+03</pdfrwt>
<pdfrwt beam="2">  1       21 0.72339497E-01 0.20346968E+03</pdfrwt>
<totfact> 0.62504055E+03</totfact>
</mgrwt>
</event>
<event>
 6      1 +2.5196620e+02 2.63854700e+02 7.54677100e-03 1.07655700e-01
       21 -1    0    0  501  502 +0.0000000000e+00 +0.0000000000e+00 +9.0869403912e+02 9.0869403912e+02 0.0000000000e+00 0.0000e+00 1.0000e+00
       21 -1    0    0  502  503 -0.0000000000e+00 -0.0000000000e+00 -1.0614919178e+03 1.0614919178e+03 0.0000000000e+00 0.0000e+00 1.0000e+00
        6  1    1    2  501    0 -8.1226838773e+01 -1.7168716235e+02 +1.6857431655e+02 3.0727932122e+02 1.7300000000e+02 0.0000e+00 -1.0000e+00
       -6  1    1    2    0  505 -1.3935137409e+02 +1.9800203404e+02 +5.6932024683e+02 6.4240030697e+02 1.7300000000e+02 0.0000e+00 1.0000e+00
       21  1    1    2  504  503 +4.8676944661e+01 -1.4678507095e+01 -8.3911981634e+02 8.4065865230e+02 0.0000000000e+00 0.0000e+00 1.0000e+00
       21  1    1    2  505  504 +1.7190126820e+02 -1.1636364597e+01 -5.1572625697e+01 1.7984767641e+02 0.0000000000e+00 0.0000e+00 1.0000e+00
<mgrwt>
<rscale>  4 0.26385472E+03</rscale>
<asrwt>0</asrwt>
<pdfrwt beam="1">  1       21 0.13979908E+00 0.26385472E+03</pdfrwt>
<pdfrwt beam="2">  1       21 0.16330645E+00 0.26385472E+03</pdfrwt>
<totfact> 0.78320311E+01</totfact>
</mgrwt>
</event>
<event>
 6      1 +2.5196620e+02 2.09082300e+02 7.54677100e-03 1.11396600e-01
       21 -1    0    0  505  502 +0.0000000000e+00 +0.0000000000e+00 +4.0344234766e+02 4.0344234766e+02 0.0000000000e+00 0.0000e+00 -1.0000e+00
       21 -1    0    0  502  503 -0.0000000000e+00 -0.0000000000e+00 -1.3304423092e+03 1.3304423092e+03 0.0000000000e+00 0.0000e+00 1.0000e+00
        6  1    1    2  501    0 +8.8733076313e-01 -6.5340715376e+01 -2.4240782905e+02 3.0489465726e+02 1.7300000000e+02 0.0000e+00 -1.0000e+00
       -6  1    1    2    0  503 +1.2950143313e+02 +7.5787267276e+01 -1.0318445925e+03 1.0569515572e+03 1.7300000000e+02 0.0000e+00 1.0000e+00
       21  1    1    2  504  501 -6.7995275637e+01 -1.7336281019e+01 +2.0048986106e+02 2.1241489716e+02 0.0000000000e+00 0.0000e+00 -1.0000e+00
       21  1    1    2  505  504 -6.2393488256e+01 +6.8897291195e+00 +1.4676259899e+02 1.5962354528e+02 0.0000000000e+00 0.0000e+00 -1.0000e+00
<mgrwt>
<rscale>  4 0.20908232E+03</rscale>
<asrwt>0</asrwt>
<pdfrwt beam="1">  1       21 0.62068053E-01 0.20908232E+03</pdfrwt>
<pdfrwt beam="2">  1       21 0.20468343E+00 0.20908232E+03</pdfrwt>
<totfact> 0.29576264E+02</totfact>
</mgrwt>
</event>
<event>
 6      1 +2.5196620e+02 1.88586300e+02 7.54677100e-03 1.06301000e-01
       21 -1    0    0  501  502 +0.0000000000e+00 +0.0000000000e+00 +9.0903763285e+02 9.0903763285e+02 0.0000000000e+00 0.0000e+00 -1.0000e+00
       21 -1    0    0  505  503 -0.0000000000e+00 -0.0000000000e+00 -1.5037851680e+02 1.5037851680e+02 0.0000000000e+00 0.0000e+00 1.0000e+00
        6  1    1    2  501    0 +1.5865126591e+02 +9.4633877869e+01 +1.1065980068e+02 2.7622524596e+02 1.7300000000e+02 0.0000e+00 1.0000e+00
       -6  1    1    2    0  504 +3.4373647216e+00 -6.4721287961e+01 +4.3646313132e+02 4.7395118482e+02 1.7300000000e+02 0.0000e+00 -1.0000e+00
       21  1    1    2  504  503 +2.6016823799e+01 -2.2228766336e+00 +1.8347519268e+00 2.6175993118e+01 0.0000000000e+00 0.0000e+00 1.0000e+00
       21  1    1    2  505  502 -1.8810545443e+02 -2.7689713275e+01 +2.0970143212e+02 2.8306372577e+02 0.0000000000e+00 0.0000e+00 -1.0000e+00
<mgrwt>
<rscale>  4 0.18858629E+03</rscale>
<asrwt>0</asrwt>
<pdfrwt beam="1">  1       21 0.13985194E+00 0.18858629E+03</pdfrwt>
<pdfrwt beam="2">  1       21 0.23135157E-01 0.18858629E+03</pdfrwt>
<totfact> 0.63187213E+03</totfact>
</mgrwt>
</event>
<event>
 6      1 +2.5196620e+02 1.82888900e+02 7.54677100e-03 1.16321900e-01
       21 -1    0    0  505  502 +0.0000000000e+00 +0.0000000000e+00 +8.5805351211e+02 8.5805351211e+02 0.0000000000e+00 0.0000e+00 -1.0000e+00
       21 -1    0    0  504  503 -0.0000000000e+00 -0.0000000000e+00 -6.2677019770e+02 6.2677019770e+02 0.0000000000e+00 0.0000e+00 -1.0000e+00
        6  1    1    2  501    0 -1.7617946164e+01 +1.5798850396e+02 +1.3404947570e+02 2.7049772891e+02 1.7300000000e+02 0.0000e+00 1.0000e+00
       -6  1    1    2    0  502 +5.9380484440e+01 -2.2361314836e+00 +6.2506284894e+02 6.5127844072e+02 1.7300000000e+02 0.0000e+00 -1.0000e+00
       21  1    1    2  504  501 -2.6873329978e+01 -1.3939794788e+02 -5.2085763026e+02 5.3985797645e+02 0.0000000000e+00 0.0000e+00 -1.0000e+00
       21  1    1    2  505  503 -1.4889208298e+01 -1.6354424596e+01 -6.9713799734e+00 2.3189563738e+01 0.0000000000e+00 0.0000e+00 1.0000e+00
<mgrwt>
<rscale>  4 0.18288894E+03</rscale>
<asrwt>0</asrwt>
<pdfrwt beam="1">  1       21 0.13200823E+00 0.18288894E+03</pdfrwt>
<pdfrwt beam="2">  1       21 0.96426184E-01 0.18288894E+03</pdfrwt>
<totfact> 0.37635912E+02</totfact>
</mgrwt>
</event>
<event>
 6      1 +2.5196620e+02 2.03354700e+02 7.54677100e-03 1.12691600e-01
       21 -1    0    0  504  502 +0.0000000000e+00 +0.0000000000e+00 +9.8054349231e+02 9.8054349231e+02 0.0000000000e+00 0.0000e+00 -1.0000e+00
       21 -1    0    0  505  503 -0.0000000000e+00 -0.0000000000e+00 -7.4232374984e+01 7.4232374984e+01 0.0000000000e+00 0.0000e+00 -1.0000e+00
        6  1    1    2  501    0 -1.1974909035e+02 +6.2060551022e+01 +4.0977839320e+02 4.6479962152e+02 1.7300000000e+02 0.0000e+00 -1.0000e+00
       -6  1    1    2    0  503 +5.2056263834e+01 -7.7858787232e+01 +2.6542918779e+02 3.3038386626e+02 1.7300000000e+02 0.0000e+00 -1.0000e+00
       21  1    1    2  504  501 +4.3459104826e+01 +5.6187425477e+01 +1.3370677602e+02 1.5140416945e+02 0.0000000000e+00 0.0000e+00 -1.0000e+00
       21  1    1    2  505  502 +2.4233721686e+01 -4.0389189267e+01 +9.7396760309e+01 1.0818821006e+02 0.0000000000e+00 0.0000e+00 1.0000e+00
<mgrwt>
<rscale>  4 0.20335472E+03</rscale>
<asrwt>0</asrwt>
<pdfrwt beam="1">  1       21 0.15085284E+00 0.20335472E+03</pdfrwt>
<pdfrwt beam="2">  1       21 0.11420366E-01 0.20335472E+03</pdfrwt>
<totfact> 0.18740237E+04</totfact>
</mgrwt>
</event>
<event>
 6      1 +2.5196620e+02 2.71852700e+02 7.54677100e-03 1.09079000e-01
       21 -1    0    0  503  502 +0.0000000000e+00 +0.0000000000e+00 +1.0793171603e+03 1.0793171603e+03 0.0000000000e+00 0.0000e+00 1.0000e+00
       21 -1    0    0  501  503 -0.0000000000e+00 -0.0000000000e+00 -1.7302041418e+02 1.7302041418e+02 0.0000000000e+00 0.0000e+00 1.0000e+00
        6  1    1    2  501    0 +1.9221606422e+02 +6.7100413587e+01 +7.7089104489e+02 8.1587467416e+02 1.7300000000e+02 0.0000e+00 1.0000e+00
       -6  1    1    2    0  504 -2.1045883445e+02 -2.1641706503e+01 -4.0194006012e-01 2.7329552871e+02 1.7300000000e+02 0.0000e+00 1.0000e+00
       21  1    1    2  504  505 -2.1916888280e+01 -4.2381344622e+01 +5.4529706688e+01 7.2457002942e+01 0.0000000000e+00 0.0000e+00 -1.0000e+00
       21  1    1    2  505  502 +4.0159658508e+01 -3.0773624618e+00 +8.1277934626e+01 9.0710368692e+01 0.0000000000e+00 0.0000e+00 1.0000e+00
<mgrwt>
<rscale>  4 0.27185268E+03</rscale>
<asrwt>0</asrwt>
<pdfrwt beam="1">  1       21 0.16604879E+00 0.27185268E+03</pdfrwt>
<pdfrwt beam="2">  1       21 0.26618526E-01 0.27185268E+03</pdfrwt>
<totfact> 0.28695336E+03</totfact>
</mgrwt>
</event>
<event>
 6      1 +2.5196620e+02 2.01383700e+02 7.54677100e-03 1.04211500e-01
       21 -1    0    0  504  502 +0.0000000000e+00 +0.0000000000e+00 +8.4545711676e+02 8.4545711676e+02 0.0000000000e+00 0.0000e+00 1.0000e+00
       21 -1    0    0  501  503 -0.0000000000e+00 -0.0000000000e+00 -1.9065501190e+02 1.9065501190e+02 0.0000000000e+00 0.0000e+00 1.0000e+00
        6  1    1    2  501    0 +9.4000597817e+01 +8.8458948981e+00 -4.0737122812e+01 2.0125326189e+02 1.7300000000e+02 0.0000e+00 1.0000e+00
       -6  1    1    2    0  502 -1.5120015272e+02 +1.4899890874e+02 +4.4275214554e+02 5.2059641122e+02 1.7300000000e+02 0.0000e+00 1.0000e+00
       21  1    1    2  504  505 -1.9439075748e+01 -5.4905614397e+01 +8.4341367698e+01 1.0249863640e+02 0.0000000000e+00 0.0000e+00 1.0000e+00
       21  1    1    2  505  503 +7.6638630654e+01 -1.0293918925e+02 +1.6844571443e+02 2.1176381915e+02 0.0000000000e+00 0.0000e+00 1.0000e+00
<mgrwt>
<rscale>  4 0.20138366E+03</rscale>
<asrwt>0</asrwt>
<pdfrwt beam="1">  1       21 0.13007032E+00 0.20138366E+03</pdfrwt>
<pdfrwt beam="2">  1       21 0.29331541E-01 0.20138366E+03</pdfrwt>
<totfact> 0.47717621E+03</totfact>
</mgrwt>
</event>
<event>
 6      1 +2.5196620e+02 1.93386400e+02 7.54677100e-03 1.07655700e-01
       21 -1    0    0  501  502 +0.0000000000e+00 +0.0000000000e+00 +1.7135791981e+03 1.7135791981e+03 0.0000000000e+00 0.0000e+00 1.0000e+00
       21 -1    0    0  504  503 -0.0000000000e+00 -0.0000000000e+00 -7.9764712840e+01 7.9764712840e+01 0.0000000000e+00 0.0000e+00 1.0000e+00
        6  1    1    2  501    0 -2.9963508752e+01 -1.3069067418e+02 +2.5475399806e+02 3.3586673503e+02 1.7300000000e+02 0.0000e+00 1.0000e+00
       -6  1    1    2    0  505 +8.2769560393e+01 +2.7571915193e+01 +1.1826200074e+03 1.1983864537e+03 1.7300000000e+02 0.0000e+00 -1.0000e+00
       21  1    1    2  504  502 -1.3457354437e+01 +1.7076855126e+01 -1.5693490810e+01 2.6814269023e+01 0.0000000000e+00 0.0000e+00 1.0000e+00
       21  1    1    2  505  503 -3.9348697204e+01 +8.6041903864e+01 +2.1213397063e+02 2.3227645315e+02 0.0000000000e+00 0.0000e+00 1.0000e+00
<mgrwt>
<rscale>  4 0.19338640E+03</rscale>
<asrwt>0</asrwt>
<pdfrwt beam="1">  1       21 0.26362754E+00 0.19338640E+03</pdfrwt>
<pdfrwt beam="2">  1       21 0.12271496E-01 0.19338640E+03</pdfrwt>
<totfact> 0.31180454E+03</totfact>
</mgrwt>
</event>
<event>
 6      1 +2.5196620e+02 2.60223300e+02 7.54677100e-03 1.16321900e-01
       21 -1    0    0  504  502 +0.0000000000e+00 +0.0000000000e+00 +1.5744559235e+03 1.5744559235e+03 0.0000000000e+00 0.0000e+00 1.0000e+00
       21 -1    0    0  501  503 -0.0000000000e+00 -0.0000000000e+00 -4.7027008432e+02 4.7027008432e+02 0.0000000000e+00 0.0000e+00 -1.0000e+00
        6  1    1    2  501    0 -1.5969231724e+02 +1.1589664898e+01 +8.4700453608e+02 8.7919374466e+02 1.7300000000e+02 0.0000e+00 1.0000e+00
       -6  1    1    2    0  502 +2.7258201029e+02 -7.2183764562e+01 +6.4792420187e+02 7.2749310620e+02 1.7300000000e+02 0.0000e+00 1.0000e+00
       21  1    1    2  504  505 -1.3839951404e+02 +7.2004401123e+01 -2.5103117010e+02 2.9555998990e+02 0.0000000000e+00 0.0000e+00 -1.0000e+00
       21  1    1    2  505  503 +2.5509820997e+01 -1.1410301459e+01 -1.3971172862e+02 1.4247916711e+02 0.0000000000e+00 0.0000e+00 -1.0000e+00
<mgrwt>
<rscale>  4 0.26022329E+03</rscale>
<asrwt>0</asrwt>
<pdfrwt beam="1">  1       21 0.24222399E+00 0.26022329E+03</pdfrwt>
<pdfrwt beam="2">  1       21 0.72349244E-01 0.26022329E+03</pdfrwt>
<totfact> 0.11671433E+02</totfact>
</mgrwt>
</event>
<event>
 6      1 +2.5196620e+02 1.94029700e+02 7.54677100e-03 1.13287100e-01
       21 -1    0    0  504  502 +0.0000000000e+00 +0.0000000000e+00 +2.8391709079e+02 2.8391709079e+02 0.0000000000e+00 0.0000e+00 1.0000e+00
       21 -1    0    0  505  503 -0.0000000000e+00 -0.0000000000e+00 -2.7632793063e+02 2.7632793063e+02 0.0000000000e+00 0.0000e+00 -1.0000e+00
        6  1    1    2  501    0 +9.0788996253e+01 +8.1200693059e+01 -5.2462891224e+01 2.1798520443e+02 1.7300000000e+02 0.0000e+00 1.0000e+00
       -6  1    1    2    0  503 -3.0692974906e+01 -5.4077634803e+01 -5.7679104996e+01 1.9267155589e+02 1.7300000000e+02 0.0000e+00 -1.0000e+00
       21  1    1    2  504  501 -2.5291609930e+01 -1.1977024773e+01 +2.3023228484e+00 2.8078734760e+01 0.0000000000e+00 0.0000e+00 1.0000e+00
       21  1    1    2  505  502 -3.4804411417e+01 -1.5146033483e+01 +1.1542883352e+02 1.2150952635e+02 0.0000000000e+00 0.0000e+00 1.0000e+00
<mgrwt>
<rscale>  4 0.19402969E+03</rscale>
<asrwt>0</asrwt>
<pdfrwt beam="1">  1       21 0.43679552E-01 0.19402969E+03</pdfrwt>
<pdfrwt beam="2">  1       21 0.42511989E-01 0.19402969E+03</pdfrwt>
<totfact> 0.26793553E+04</totfact>
</mgrwt>
</event>
<event>
 6      1 +2.5196620e+02 1.86337700e+02 7.54677100e-03 9.49153200e-02
       21 -1    0    0  504  502 +0.0000000000e+00 +0.0000000000e+00 +3.3454834741e+02 3.3454834741e+02 0.0000000000e+00 0.0000e+00 1.0000e+00
       21 -1    0    0  501  503 -0.0000000000e+00 -0.0000000000e+00 -1.3439318181e+03 1.3439318181e+03 0.0000000000e+00 0.0000e+00 1.0000e+00
        6  1    1    2  501    0 +7.9370736209e+01 +1.0097811137e+02 -8.6857740375e+02 8.9490334620e+02 1.7300000000e+02 0.0000e+00 1.0000e+00
       -6  1    1    2    0  505 -1.3091431177e+01 +2.0597590451e+01 -2.4952824310e+02 3.0461285332e+02 1.7300000000e+02 0.0000e+00 -1.0000e+00
       21  1    1    2  504  503 -1.2210886257e+01 -3.9725267002e+01 -1.7442379353e+02 1.7930661542e+02 0.0000000000e+00 0.0000e+00 1.0000e+00
       21  1    1    2  505  502 -5.4068418774e+01 -8.1850434816e+01 +2.8314596970e+02 2.9965735056e+02 0.0000000000e+00 0.0000e+00 1.0000e+00
<mgrwt>
<rscale>  4 0.18633772E+03</rscale>
<asrwt>0</asrwt>
<pdfrwt beam="1">  1       21 0.51468977E-01 0.18633772E+03</pdfrwt>
<pdfrwt beam="2">  1       21 0.20675874E+00 0.18633772E+03</pdfrwt>
<totfact> 0.43971179E+02</totfact>
</mgrwt>
</event>
<event>
 6      1 +2.5196620e+02 2.19793500e+02 7.54677100e-03 1.06301000e-01
       21 -1    0    0  501  502 +0.0000000000e+00 +0.0000000000e+00 +1.3115437359e+03 1.3115437359e+03 0.0000000000e+00 0.0000e+00 1.0000e+00
       21 -1    0    0  504  503 -0.0000000000e+00 -0.0000000000e+00 -4.4613332313e+02 4.4613332313e+02 0.0000000000e+00 0.0000e+00 -1.0000e+00
        6  1    1    2  501    0 -2.0300944012e+02 -1.7144805367e+02 +9.9128162561e+02 1.0407571903e+03 1.7300000000e+02 0.0000e+00 1.0000e+00
       -6  1    1    2    0  503 +9.0126109995e+01 +7.0647108308e+01 -1.6748325597e+02 2.6663340122e+02 1.7300000000e+02 0.0000e+00 -1.0000e+00
       21  1    1    2  504  505 +4.2068363719e+01 -4.3225413676e+01 -1.7247645349e+02 1.8271921252e+02 0.0000000000e+00 0.0000e+00 -1.0000e+00
       21  1    1    2  505  502 +7.0814966410e+01 +1.4402635904e+02 +2.1408849666e+02 2.6756725504e+02 0.0000000000e+00 0.0000e+00 1.0000e+00
<mgrwt>
<rscale>  4 0.21979353E+03</rscale>
<asrwt>0</asrwt>
<pdfrwt beam="1">  1       21 0.20177596E+00 0.21979353E+03</pdfrwt>
<pdfrwt beam="2">  1       21 0.68635897E-01 0.21979353E+03</pdfrwt>
<totfact> 0.24465758E+02</totfact>
</mgrwt>
</event>
<event>
 6      1 +2.5196620e+02 1.87685400e+02 7.54677100e-03 9.49153200e-02
       21 -1    0    0  503  502 +0.0000000000e+00 +0.0000000000e+00 +4.6337174299e+02 4.6337174299e+02 0.0000000000e+00 0.0000e+00 -1.0000e+00
       21 -1    0    0  504  503 -0.0000000000e+00 -0.0000000000e+00 -8.1342751507e+02 8.1342751507e+02 0.0000000000e+00 0.0000e+00 -1.0000e+00
        6  1    1    2  501    0 +8.6089610171e+00 -3.5084554310e+01 +3.9865750257e+01 1.8117206795e+02 1.7300000000e+02 0.0000e+00 -1.0000e+00
       -6  1    1    2    0  505 -2.8436432238e+01 +8.0268885914e+01 -4.9315021929e+02 5.2950718929e+02 1.7300000000e+02 0.0000e+00 -1.0000e+00
       21  1    1    2  504  501 +2.2445925811e+01 -2.2519598886e+00 -2.2950839609e+02 2.3061438547e+02 0.0000000000e+00 0.0000e+00 -1.0000e+00
       21  1    1    2  505  502 -2.6184545905e+00 -4.2932371716e+01 +3.3273709305e+02 3.3550561535e+02 0.0000000000e+00 0.0000e+00 -1.0000e+00
<mgrwt>
<rscale>  4 0.18768542E+03</rscale>
<asrwt>0</asrwt>
<pdfrwt beam="1">  1       21 0.71287961E-01 0.18768542E+03</pdfrwt>
<pdfrwt beam="2">  1       21 0.12514269E+00 0.18768542E+03</pdfrwt>
<totfact> 0.85106000E+02</totfact>
</mgrwt>
</event>
<event>
 6      1 +2.5196620e+02 2.26722200e+02 7.54677100e-03 1.06301000e-01
       21 -1    0    0  505  502 +0.0000000000e+00 +0.0000000000e+00 +2.3627269878e+02 2.3627269878e+02 0.0000000000e+00 0.0000e+00 1.0000e+00
       21 -1    0    0  504  503 -0.0000000000e+00 -0.0000000000e+00 -1.3778366650e+03 1.3778366650e+03 0.0000000000e+00 0.0000e+00 -1.0000e+00
        6  1    1    2  501    0 -8.8918226993e+01 -1.0424302785e+02 -3.2681269653e+02 3.9434578552e+02 1.7300000000e+02 0.0000e+00 -1.0000e+00
       -6  1    1    2    0  502 +9.4210145232e+01 +1.1091995016e+02 -1.7790144102e+02 2.8767465916e+02 1.7300000000e+02 0.0000e+00 1.0000e+00
       21  1    1    2  504  501 -4.0121454216e+01 -8.3825110691e+00 -7.8186569318e+02 7.8293930784e+02 0.0000000000e+00 0.0000e+00 1.0000e+00
       21  1    1    2  505  503 +3.4829535977e+01 +1.7055887578e+00 +1.4501586446e+02 1.4914961131e+02 0.0000000000e+00 0.0000e+00 1.0000e+00
<mgrwt>
<rscale>  4 0.22672218E+03</rscale>
<asrwt>0</asrwt>
<pdfrwt beam="1">  1       21 0.36349646E-01 0.22672218E+03</pdfrwt>
<pdfrwt beam="2">  1       21 0.21197487E+00 0.22672218E+03</pdfrwt>
<totfact> 0.79273551E+02</totfact>
</mgrwt>
</event>
<event>
 6      1 +2.5196620e+02 1.90786100e+02 7.54677100e-03 9.49153200e-02
       21 -1    0    0  503  502 +0.0000000000e+00 +0.0000000000e+00 +5.7584771164e+02 5.7584771164e+02 0.0000000000e+00 0.0000e+00 -1.0000e+00
       21 -1    0    0  504  503 -0.0000000000e+00 -0.0000000000e+00 -6.1870606012e+02 6.1870606012e+02 0.0000000000e+00 0.0000e+00 1.0000e+00
        6  1    1    2  501    0 +2.0121219933e+01 -6.4983549917e+01 -1.2150075101e+02 2.2207917000e+02 1.7300000000e+02 0.0000e+00 -1.0000e+00
       -6  1    1    2    0  505 +1.3385642856e+01 +8.7890829170e+01 -3.6277625311e+02 4.1163039624e+02 1.7300000000e+02 0.0000e+00 1.0000e+00
       21  1    1    2  504  501 -2.7643688044e+01 -4.7260441049e+01 -4.6773223601e+01 7.2010118892e+01 0.0000000000e+00 0.0000e+00 1.0000e+00
       21  1    1    2  505  502 -5.8631747454e+00 +2.4353161796e+01 +4.8819187923e+02 4.8883408663e+02 0.0000000000e+00 0.0000e+00 -1.0000e+00
<mgrwt>
<rscale>  4 0.19078613E+03</rscale>
<asrwt>0</asrwt>
<pdfrwt beam="1">  1       21 0.88591956E-01 0.19078613E+03</pdfrwt>
<pdfrwt beam="2">  1       21 0.95185547E-01 0.19078613E+03</pdfrwt>
<totfact> 0.10066625E+03</totfact>
</mgrwt>
</event>
<event>
 6      1 +2.5196620e+02 2.78811800e+02 7.54677100e-03 9.49153200e-02
       21 -1    0    0  505  502 +0.0000000000e+00 +0.0000000000e+00 +8.8309794575e+02 8.8309794575e+02 0.0000000000e+00 0.0000e+00 1.0000e+00
       21 -1    0    0  501  503 -0.0000000000e+00 -0.0000000000e+00 -5.8424399362e+02 5.8424399362e+02 0.0000000000e+00 0.0000e+00 1.0000e+00
        6  1    1    2  501    0 +1.3385145982e+01 +4.0986487335e+01 +1.8914154129e+02 2.5992802257e+02 1.7300000000e+02 0.0000e+00 1.0000e+00
       -6  1    1    2    0  502 +2.0053715823e+02 +6.8254663796e+01 -4.2845072444e+02 5.0830391916e+02 1.7300000000e+02 0.0000e+00 1.0000e+00
       21  1    1    2  504  503 -2.4422284215e+02 -6.8837036196e+01 +1.2497427109e+02 2.8284607584e+02 0.0000000000e+00 0.0000e+00 1.0000e+00
       21  1    1    2  505  504 +3.0300537940e+01 -4.0404114935e+01 +4.1318886418e+02 4.1626392179e+02 0.0000000000e+00 0.0000e+00 1.0000e+00
<mgrwt>
<rscale>  4 0.24871944E+03</rscale>
<asrwt>0</asrwt>
<pdfrwt beam="1">  1       21 0.13586122E+00 0.27881181E+03</pdfrwt>
<pdfrwt beam="2">  1       21 0.89883692E-01 0.27881181E+03</pdfrwt>
<totfact> 0.37447590E+02</totfact>
</mgrwt>
</event>
<event>
 6      1 +2.5196620e+02 2.23444100e+02 7.54677100e-03 1.06301000e-01
       21 -1    0    0  501  502 +0.0000000000e+00 +0.0000000000e+00 +5.5451663583e+02 5.5451663583e+02 0.0000000000e+00 0.0000e+00 -1.0000e+00
       21 -1    0    0  504  503 -0.0000000000e+00 -0.0000000000e+00 -5.0689957509e+02 5.0689957509e+02 0.0000000000e+00 0.0000e+00 1.0000e+00
        6  1    1    2  501    0 -6.3806818631e+01 -1.1591913478e+02 +6.7561907295e+01 2.2803983694e+02 1.7300000000e+02 0.0000e+00 -1.0000e+00
       -6  1    1    2    0  503 +5.0050549165e+01 +1.0981435641e+02 -3.3735304739e+02 3.9786973864e+02 1.7300000000e+02 0.0000e+00 1.0000e+00
       21  1    1    2  504  505 +3.9606497743e+01 +1.2681515862e+01 -5.1184761034e+01 6.5949793557e+01 0.0000000000e+00 0.0000e+00 1.0000e+00
       21  1    1    2  505  502 -2.5850228277e+01 -6.5767374879e+00 +3.6859296186e+02 3.6955684179e+02 0.0000000000e+00 0.0000e+00 -1.0000e+00
<mgrwt>
<rscale>  4 0.22344413E+03</rscale>
<asrwt>0</asrwt>
<pdfrwt beam="1">  1       21 0.85310251E-01 0.22344413E+03</pdfrwt>
<pdfrwt beam="2">  1       21 0.77984551E-01 0.22344413E+03</pdfrwt>
<totfact> 0.16845599E+03</totfact>
</mgrwt>
</event>
<event>
 6      1 +2.5196620e+02 1.92297000e+02 7.54677100e-03 1.06301000e-01
       21 -1    0    0  505  502 +0.0000000000e+00 +0.0000000000e+00 +1.2960295953e+03 1.2960295953e+03 0.0000000000e+00 0.0000e+00 -1.0000e+00
       21 -1    0    0  504  503 -0.0000000000e+00 -0.0000000000e+00 -8.8121153034e+01 8.8121153034e+01 0.0000000000e+00 0.0000e+00 -1.0000e+00
        6  1    1    2  501    0 +1.2323521851e+01 -6.8022877646e+01 +1.7617918814e+02 2.5641194865e+02 1.7300000000e+02 0.0000e+00 -1.0000e+00
       -6  1    1    2    0  503 +2.9727728189e+01 +9.9956936756e+01 +8.4957196411e+02 8.7325634795e+02 1.7300000000e+02 0.0000e+00 -1.0000e+00
       21  1    1    2  504  502 -2.3966421084e+01 -1.5367574756e+01 -2.9739959029e+01 4.1170582417e+01 0.0000000000e+00 0.0000e+00 1.0000e+00
       21  1    1    2  505  501 -1.8084828956e+01 -1.6566484354e+01 +2.1189724903e+02 2.1331186931e+02 0.0000000000e+00 0.0000e+00 -1.0000e+00
<mgrwt>
<rscale>  4 0.19229704E+03</rscale>
<asrwt>0</asrwt>
<pdfrwt beam="1">  1       21 0.19938915E+00 0.19229704E+03</pdfrwt>
<pdfrwt beam="2">  1       21 0.13557101E-01 0.19229704E+03</pdfrwt>
<totfact> 0.63872267E+03</totfact>
</mgrwt>
</event>
<event>
 6      1 +2.5196620e+02 2.41466500e+02 7.54677100e-03 9.49153200e-02
       21 -1    0    0  504  502 +0.0000000000e+00 +0.0000000000e+00 +1.9704450085e+02 1.9704450085e+02 0.0000000000e+00 0.0000e+00 -1.0000e+00
       21 -1    0    0  501  503 -0.0000000000e+00 -0.0000000000e+00 -5.0889751790e+02 5.0889751790e+02 0.0000000000e+00 0.0000e+00 -1.0000e+00
        6  1    1    2  501    0 -1.4512948971e+02 +4.4844376452e+01 -2.7013474903e+00 2.3023875469e+02 1.7300000000e+02 0.0000e+00 -1.0000e+00
       -6  1    1    2    0  505 +1.3813806920e+02 -9.1453163588e+01 -2.5347078412e+02 3.4874381098e+02 1.7300000000e+02 0.0000e+00 -1.0000e+00
       21  1    1    2  504  503 +1.4433741782e+01 -2.4493534288e+01 -4.7018948823e+01 5.4945861283e+01 0.0000000000e+00 0.0000e+00 -1.0000e+00
       21  1    1    2  505  502 -7.4423212693e+00 +7.1102321424e+01 -8.6619366169e+00 7.2013591798e+01 0.0000000000e+00 0.0000e+00 -1.0000e+00
<mgrwt>
<rscale>  4 0.24146646E+03</rscale>
<asrwt>0</asrwt>
<pdfrwt beam="1">  1       21 0.30314539E-01 0.24146646E+03</pdfrwt>
<pdfrwt beam="2">  1       21 0.78291925E-01 0.24146646E+03</pdfrwt>
<totfact> 0.14644336E+04</totfact>
</mgrwt>
</event>
<event>
 6      1 +2.5196620e+02 2.40772100e+02 7.54677100e-03 1.09711200e-01
       21 -1    0    0  504  502 +0.0000000000e+00 +0.0000000000e+00 +1.8142689048e+03 1.8142689048e+03 0.0000000000e+00 0.0000e+00 -1.0000e+00
       21 -1    0    0  505  503 -0.0000000000e+00 -0.0000000000e+00 -3.3962272809e+02 3.3962272809e+02 0.0000000000e+00 0.0000e+00 1.0000e+00
        6  1    1    2  501    0 +4.1194813581e+01 -2.0128603482e+02 -9.6571020159e+01 2.8542607171e+02 1.7300000000e+02 0.0000e+00 1.0000e+00
       -6  1    1    2    0  503 -2.7558556139e+01 +1.3164742043e+02 -6.4686274365e+01 2.2848157784e+02 1.7300000000e+02 0.0000e+00 1.0000e+00
       21  1    1    2  504  501 -4.2381550203e+01 +4.4053079376e+01 +1.3641861165e+03 1.3655550630e+03 0.0000000000e+00 0.0000e+00 -1.0000e+00
       21  1    1    2  505  502 +2.8745292760e+01 +2.5585535011e+01 +2.7171735481e+02 2.7442892042e+02 0.0000000000e+00 0.0000e+00 1.0000e+00
<mgrwt>
<rscale>  4 0.24077208E+03</rscale>
<asrwt>0</asrwt>
<pdfrwt beam="1">  1       21 0.27911829E+00 0.24077208E+03</pdfrwt>
<pdfrwt beam="2">  1       21 0.52249652E-01 0.24077208E+03</pdfrwt>
<totfact> 0.14635658E+02</totfact>
</mgrwt>
</event>
<event>
 6      1 +2.5196620e+02 2.55505900e+02 7.54677100e-03 9.49153200e-02
       21 -1    0    0  504  502 +0.0000000000e+00 +0.0000000000e+00 +1.5308504298e+03 1.5308504298e+03 0.0000000000e+00 0.0000e+00 -1.0000e+00
       21 -1    0    0  501  503 -0.0000000000e+00 -0.0000000000e+00 -1.1129441605e+02 1.1129441605e+02 0.0000000000e+00 0.0000e+00 1.0000e+00
        6  1    1    2  501    0 -4.0443497836e+01 -1.3520855661e+02 +7.6448435538e+02 7.9641845780e+02 1.7300000000e+02 0.0000e+00 -1.0000e+00
       -6  1    1    2    0  505 +8.1559048279e+01 +2.3624610942e+02 +2.8471942548e+02 4.1648319752e+02 1.7300000000e+02 0.0000e+00 1.0000e+00
       21  1    1    2  504  503 +1.1098154962e+01 -7.1517885583e+01 +2.1825983170e+01 7.5593323403e+01 0.0000000000e+00 0.0000e+00 1.0000e+00
       21  1    1    2  505  502 -5.2213705404e+01 -2.9519667225e+01 +3.4852624972e+02 3.5364986714e+02 0.0000000000e+00 0.0000e+00 1.0000e+00
<mgrwt>
<rscale>  4 0.25550589E+03</rscale>
<asrwt>0</asrwt>
<pdfrwt beam="1">  1       21 0.23551544E+00 0.25550589E+03</pdfrwt>
<pdfrwt beam="2">  1       21 0.17122219E-01 0.25550589E+03</pdfrwt>
<totfact> 0.23486742E+03</totfact>
</mgrwt>
</event>
<event>
 6      1 +2.5196620e+02 2.86056900e+02 7.54677100e-03 9.28652600e-02
       21 -1    0    0  505  502 +0.0000000000e+00 +0.0000000000e+00 +2.9623570097e+02 2.9623570097e+02 0.0000000000e+00 0.0000e+00 -1.0000e+00
       21 -1    0    0  501  503 -0.0000000000e+00 -0.0000000000e+00 -5.6989947732e+02 5.6989947732e+02 0.0000000000e+00 0.0000e+00 1.0000e+00
        6  1    1    2  501    0 +9.2210004205e+01 -1.9383798830e+02 -6.5636142601e+00 2.7576789446e+02 1.7300000000e+02 0.0000e+00 -1.0000e+00
       -6  1    1    2    0  502 -1.5983640960e+02 +1.8693321116e+02 -2.5562827000e-01 3.0070046328e+02 1.7300000000e+02 0.0000e+00 -1.0000e+00
       21  1    1    2  504  503 +1.2844209885e+01 +2.7582003741e+01 -1.9319901740e+02 1.9558016510e+02 0.0000000000e+00 0.0000e+00 1.0000e+00
       21  1    1    2  505  504 +5.4782195514e+01 -2.0677226605e+01 -7.3645516419e+01 9.4086655451e+01 0.0000000000e+00 0.0000e+00 1.0000e+00
<mgrwt>
<rscale>  4 0.28605690E+03</rscale>
<asrwt>0</asrwt>
<pdfrwt beam="1">  1       21 0.45574723E-01 0.28605690E+03</pdfrwt>
<pdfrwt beam="2">  1       21 0.87676843E-01 0.28605690E+03</pdfrwt>
<totfact> 0.48443406E+03</totfact>
</mgrwt>
</event>
<event>
 6      1 +2.5196620e+02 1.88370300e+02 7.54677100e-03 9.49153200e-02
       21 -1    0    0  505  502 +0.0000000000e+00 +0.0000000000e+00 +5.0997227661e+02 5.0997227661e+02 0.0000000000e+00 0.0000e+00 1.0000e+00
       21 -1    0    0  501  503 -0.0000000000e+00 -0.0000000000e+00 -1.8763789299e+02 1.8763789299e+02 0.0000000000e+00 0.0000e+00 1.0000e+00
        6  1    1    2  501    0 +3.3505384637e+01 +7.9117599008e+01 +3.0883985544e+02 3.6427086294e+02 1.7300000000e+02 0.0000e+00 1.0000e+00
       -6  1    1    2    0  502 -2.4849053217e+01 -6.8166078370e+01 -9.0889807483e+01 2.0845634265e+02 1.7300000000e+02 0.0000e+00 1.0000e+00
       21  1    1    2  504  503 +1.5091616766e+01 -2.4054573412e+01 +1.6354997797e+01 3.2769884828e+01 0.0000000000e+00 0.0000e+00 1.0000e+00
       21  1    1    2  505  504 -2.3747948186e+01 +1.3103052775e+01 +8.8029337859e+01 9.2113079196e+01 0.0000000000e+00 0.0000e+00 1.0000e+00
<mgrwt>
<rscale>  4 0.18837029E+03</rscale>
<asrwt>0</asrwt>
<pdfrwt beam="1">  1       21 0.78457273E-01 0.18837029E+03</pdfrwt>
<pdfrwt beam="2">  1       21 0.28867368E-01 0.18837029E+03</pdfrwt>
<totfact> 0.16548714E+04</totfact>
</mgrwt>
</event>
<event>
 6      1 +2.5196620e+02 1.87007100e+02 7.54677100e-03 9.49153200e-02
       21 -1    0    0  504  502 +0.0000000000e+00 +0.0000000000e+00 +7.8166095314e+01 7.8166095314e+01 0.0000000000e+00 0.0000e+00 -1.0000e+00
       21 -1    0    0  501  503 -0.0000000000e+00 -0.0000000000e+00 -4.2039011124e+03 4.2039011124e+03 0.0000000000e+00 0.0000e+00 -1.0000e+00
        6  1    1    2  501    0 -2.0294724954e+01 -6.1686823785e+01 -3.3752519577e+02 3.8479786625e+02 1.7300000000e+02 0.0000e+00 -1.0000e+00
       -6  1    1    2    0  505 +1.2993351924e+02 -2.1080286242e+01 -5.9499388648e+02 6.3346177693e+02 1.7300000000e+02 0.0000e+00 1.0000e+00
       21  1    1    2  504  503 -1.1928618078e+02 +1.2479571356e+02 -3.2120974363e+03 3.2167332969e+03 0.0000000000e+00 0.0000e+00 -1.0000e+00
       21  1    1    2  505  502 +9.6473864875e+00 -4.2028603535e+01 +1.8881501425e+01 4.7074267676e+01 0.0000000000e+00 0.0000e+00 -1.0000e+00
<mgrwt>
<rscale>  4 0.18700714E+03</rscale>
<asrwt>0</asrwt>
<pdfrwt beam="1">  1       21 0.12025551E-01 0.18700714E+03</pdfrwt>
<pdfrwt beam="2">  1       21 0.64675412E+00 0.18700714E+03</pdfrwt>
<totfact> 0.84832104E+00</totfact>
</mgrwt>
</event>
<event>
 6      1 +2.5196620e+02 2.14314400e+02 7.54677100e-03 1.14954000e-01
       21 -1    0    0  505  502 +0.0000000000e+00 +0.0000000000e+00 +2.3248419236e+03 2.3248419236e+03 0.0000000000e+00 0.0000e+00 1.0000e+00
       21 -1    0    0  502  503 -0.0000000000e+00 -0.0000000000e+00 -1.0155871183e+02 1.0155871183e+02 0.0000000000e+00 0.0000e+00 -1.0000e+00
        6  1    1    2  501    0 +1.6595614089e+02 +1.3487852892e+02 +5.7645911740e+02 6.3872354920e+02 1.7300000000e+02 0.0000e+00 1.0000e+00
       -6  1    1    2    0  503 -1.0695649596e+02 -1.9810245556e+01 +8.6889736244e+01 2.2206072170e+02 1.7300000000e+02 0.0000e+00 -1.0000e+00
       21  1    1    2  504  501 -3.7266995444e+01 -8.9328421643e+01 +1.0013160797e+03 1.0059832440e+03 0.0000000000e+00 0.0000e+00 1.0000e+00
       21  1    1    2  505  504 -2.1732649487e+01 -2.5739861719e+01 +5.5861827845e+02 5.5963312050e+02 0.0000000000e+00 0.0000e+00 1.0000e+00
<mgrwt>
<rscale>  4 0.21431444E+03</rscale>
<asrwt>0</asrwt>
<pdfrwt beam="1">  1       21 0.35766795E+00 0.21431444E+03</pdfrwt>
<pdfrwt beam="2">  1       21 0.15624419E-01 0.21431444E+03</pdfrwt>
<totfact> 0.55562017E+02</totfact>
</mgrwt>
</event>
<event>
 6      1 +2.5196620e+02 1.93120200e+02 7.54677100e-03 1.14954000e-01
       21 -1    0    0  501  502 +0.0000000000e+00 +0.0000000000e+00 +3.2107537134e+02 3.2107537134e+02 0.0000000000e+00 0.0000e+00 1.0000e+00
       21 -1    0    0  504  503 -0.0000000000e+00 -0.0000000000e+00 -5.6926345773e+02 5.6926345773e+02 0.0000000000e+00 0.0000e+00 1.0000e+00
        6  1    1    2  501    0 -5.6601960571e+01 -8.1394976454e+01 -4.4411741416e+02 4.8682461081e+02 1.7300000000e+02 0.0000e+00 1.0000e+00
       -6  1    1    2    0  503 +7.0771240085e+01 -3.3676039699e+01 +2.4358868828e+01 1.9148106581e+02 1.7300000000e+02 0.0000e+00 1.0000e+00
       21  1    1    2  504  505 +7.6511738870e+00 +7.5586829832e+01 +8.2261601420e+01 1.1197714219e+02 0.0000000000e+00 0.0000e+00 1.0000e+00
       21  1    1    2  505  502 -2.1820453401e+01 +3.9484186320e+01 +8.9308857525e+01 1.0005601026e+02 0.0000000000e+00 0.0000e+00 1.0000e+00
<mgrwt>
<rscale>  4 0.19312017E+03</rscale>
<asrwt>0</asrwt>
<pdfrwt beam="1">  1       21 0.49396212E-01 0.19312017E+03</pdfrwt>
<pdfrwt beam="2">  1       21 0.87578992E-01 0.19312017E+03</pdfrwt>
<totfact> 0.43711470E+03</totfact>
</mgrwt>
</event>
<event>
 6      1 +2.5196620e+02 1.84871100e+02 7.54677100e-03 9.28652600e-02
       21 -1    0    0  505  502 +0.0000000000e+00 +0.0000000000e+00 +5.7834794320e+02 5.7834794320e+02 0.0000000000e+00 0.0000e+00 -1.0000e+00
       21 -1    0    0  504  503 -0.0000000000e+00 -0.0000000000e+00 -1.6692659556e+02 1.6692659556e+02 0.0000000000e+00 0.0000e+00 -1.0000e+00
        6  1    1    2  501    0 -6.1657446874e+01 -1.0463559672e+02 +1.9691097694e+02 2.8888264347e+02 1.7300000000e+02 0.0000e+00 1.0000e+00
       -6  1    1    2    0  502 +5.0121763953e+01 -2.7831605358e+01 +1.6494364934e+02 2.4580926943e+02 1.7300000000e+02 0.0000e+00 -1.0000e+00
       21  1    1    2  504  501 +2.2656525400e+01 -1.7997626483e+01 -2.8580130991e+01 4.0670094537e+01 0.0000000000e+00 0.0000e+00 -1.0000e+00
       21  1    1    2  505  503 -1.1120842479e+01 +1.5046482856e+02 +7.8146852350e+01 1.6991253133e+02 0.0000000000e+00 0.0000e+00 -1.0000e+00
<mgrwt>
<rscale>  4 0.18487105E+03</rscale>
<asrwt>0</asrwt>
<pdfrwt beam="1">  1       21 0.88976606E-01 0.18487105E+03</pdfrwt>
<pdfrwt beam="2">  1       21 0.25681015E-01 0.18487105E+03</pdfrwt>
<totfact> 0.15598307E+04</totfact>
</mgrwt>
</event>
<event>
 6      1 +2.5196620e+02 1.91896100e+02 7.54677100e-03 1.09711200e-01
       21 -1    0    0  504  502 +0.0000000000e+00 +0.0000000000e+00 +5.5544261600e+02 5.5544261600e+02 0.0000000000e+00 0.0000e+00 1.0000e+00
       21 -1    0    0  502  503 -0.0000000000e+00 -0.0000000000e+00 -3.0969038726e+02 3.0969038726e+02 0.0000000000e+00 0.0000e+00 1.0000e+00
        6  1    1    2  501    0 -9.5030528796e+01 -1.4095613879e+02 +8.9517266828e+01 2.5853776422e+02 1.7300000000e+02 0.0000e+00 1.0000e+00
       -6  1    1    2    0  503 +2.8987635352e+01 +5.6376277221e+01 -1.7439926307e+02 2.5369799091e+02 1.7300000000e+02 0.0000e+00 1.0000e+00
       21  1    1    2  504  505 +4.2665149655e+01 +5.8317591017e+01 +2.9134895840e+02 3.0017573516e+02 0.0000000000e+00 0.0000e+00 1.0000e+00
       21  1    1    2  505  501 +2.3377743789e+01 +2.6262270551e+01 +3.9285266576e+01 5.2721512963e+01 0.0000000000e+00 0.0000e+00 1.0000e+00
<mgrwt>
<rscale>  4 0.19189612E+03</rscale>
<asrwt>0</asrwt>
<pdfrwt beam="1">  1       21 0.85452710E-01 0.19189612E+03</pdfrwt>
<pdfrwt beam="2">  1       21 0.47644675E-01 0.19189612E+03</pdfrwt>
<totfact> 0.49895637E+03</totfact>
</mgrwt>
</event>
<event>
 6      1 +2.5196620e+02 2.79960300e+02 7.54677100e-03 1.09711200e-01
       21 -1    0    0  504  502 +0.0000000000e+00 +0.0000000000e+00 +2.4875742423e+02 2.4875742423e+02 0.0000000000e+00 0.0000e+00 -1.0000e+00
       21 -1    0    0  505  503 -0.0000000000e+00 -0.0000000000e+00 -1.0330022012e+03 1.0330022012e+03 0.0000000000e+00 0.0000e+00 1.0000e+00
        6  1    1    2  501    0 -8.5510939279e+01 -2.1478493013e+02 -8.3293435616e+02 8.8156300320e+02 1.7300000000e+02 0.0000e+00 1.0000e+00
       -6  1    1    2    0  503 +6.4792732477e+01 +1.6343805138e+02 -5.9030979335e+01 2.5362127541e+02 1.7300000000e+02 0.0000e+00 -1.0000e+00
       21  1    1    2  504  501 -1.5641000566e+01 -1.3536738435e+01 +8.0135066503e+00 2.2183337779e+01 0.0000000000e+00 0.0000e+00 -1.0000e+00
       21  1    1    2  505  502 +3.6359207367e+01 +6.4883617185e+01 +9.9707051832e+01 1.2439200909e+02 0.0000000000e+00 0.0000e+00 -1.0000e+00
<mgrwt>
<rscale>  4 0.27996029E+03</rscale>
<asrwt>0</asrwt>
<pdfrwt beam="1">  1       21 0.38270373E-01 0.27996029E+03</pdfrwt>
<pdfrwt beam="2">  1       21 0.15892341E+00 0.27996029E+03</pdfrwt>
<totfact> 0.15684704E+03</totfact>
</mgrwt>
</event>
<event>
 6      1 +2.5196620e+02 1.93002600e+02 7.54677100e-03 1.12691600e-01
       21 -1    0    0  505  502 +0.0000000000e+00 +0.0000000000e+00 +7.1973703943e+02 7.1973703943e+02 0.0000000000e+00 0.0000e+00 1.0000e+00
       21 -1    0    0  504  503 -0.0000000000e+00 -0.0000000000e+00 -2.4514877216e+02 2.4514877216e+02 0.0000000000e+00 0.0000e+00 -1.0000e+00
        6  1    1    2  501    0 +4.6594851104e+01 +9.6705724452e+00 +4.1704445525e+02 4.5400405040e+02 1.7300000000e+02 0.0000e+00 1.0000e+00
       -6  1    1    2    0  503 -8.8174795269e+01 -1.3841825808e+01 -1.8180462145e+02 2.6636124163e+02 1.7300000000e+02 0.0000e+00 -1.0000e+00
       21  1    1    2  504  502 +2.2662030905e+01 +1.5292691745e+01 +1.5324551364e+02 1.5566509409e+02 0.0000000000e+00 0.0000e+00 1.0000e+00
       21  1    1    2  505  501 +1.8917913259e+01 -1.1121438383e+01 +8.6102919826e+01 8.8855425475e+01 0.0000000000e+00 0.0000e+00 1.0000e+00
<mgrwt>
<rscale>  4 0.19300264E+03</rscale>
<asrwt>0</asrwt>
<pdfrwt beam="1">  1       21 0.11072877E+00 0.19300264E+03</pdfrwt>
<pdfrwt beam="2">  1       21 0.37715196E-01 0.19300264E+03</pdfrwt>
<totfact> 0.43568973E+03</totfact>
</mgrwt>
</event>
<event>
 6      1 +2.5196620e+02 4.62549800e+02 7.54677100e-03 1.16558800e-01
       21 -1    0    0  503  502 +0.0000000000e+00 +0.0000000000e+00 +2.2727927571e+02 2.2727927571e+02 0.0000000000e+00 0.0000e+00 1.0000e+00
       21 -1    0    0  504  503 -0.0000000000e+00 -0.0000000000e+00 -1.2065364789e+03 1.2065364789e+03 0.0000000000e+00 0.0000e+00 -1.0000e+00
        6  1    1    2  501    0 -2.8649279558e+02 -2.9787338579e+02 -3.0883490964e+02 5.4416420067e+02 1.7300000000e+02 0.0000e+00 1.0000e+00
       -6  1    1    2    0  505 +2.9275587466e+02 +3.2690801820e+02 -6.8760966477e+02 8.3385304796e+02 1.7300000000e+02 0.0000e+00 -1.0000e+00
       21  1    1    2  504  501 -2.1206942189e+01 -1.2802283900e+01 -4.1362340793e+00 2.5114563552e+01 0.0000000000e+00 0.0000e+00 1.0000e+00
       21  1    1    2  505  502 +1.4943863108e+01 -1.6232348505e+01 +2.1323605273e+01 3.0683942452e+01 0.0000000000e+00 0.0000e+00 1.0000e+00
<mgrwt>
<rscale>  4 0.46254983E+03</rscale>
<asrwt>0</asrwt>
<pdfrwt beam="1">  1       21 0.34966042E-01 0.46254983E+03</pdfrwt>
<pdfrwt beam="2">  1       21 0.18562100E+00 0.46254983E+03</pdfrwt>
<totfact> 0.10975271E+03</totfact>
</mgrwt>
</event>
<event>
 6      1 +2.5196620e+02 2.46947700e+02 7.54677100e-03 1.14954000e-01
       21 -1    0    0  501  502 +0.0000000000e+00 +0.0000000000e+00 +5.7870801941e+02 5.7870801941e+02 0.0000000000e+00 0.0000e+00 1.0000e+00
       21 -1    0    0  504  503 -0.0000000000e+00 -0.0000000000e+00 -7.9138061877e+02 7.9138061877e+02 0.0000000000e+00 0.0000e+00 1.0000e+00
        6  1    1    2  501    0 -1.3428959948e+02 +1.0487139299e+02 +1.1495433399e+02 2.6865443324e+02 1.7300000000e+02 0.0000e+00 1.0000e+00
       -6  1    1    2    0  503 -2.9961268353e+01 -3.3326294966e+01 -6.8059237802e+02 7.0366419872e+02 1.7300000000e+02 0.0000e+00 1.0000e+00
       21  1    1    2  504  505 +8.6501363406e+01 -3.8535378345e+01 +1.4365325149e+02 1.7205730999e+02 0.0000000000e+00 0.0000e+00 1.0000e+00
       21  1    1    2  505  502 +7.7749504423e+01 -3.3009719678e+01 +2.0931219317e+02 2.2571269623e+02 0.0000000000e+00 0.0000e+00 1.0000e+00
<mgrwt>
<rscale>  4 0.22776715E+03</rscale>
<asrwt>0</asrwt>
<pdfrwt beam="1">  1       21 0.89032003E-01 0.24694774E+03</pdfrwt>
<pdfrwt beam="2">  1       21 0.12175086E+00 0.24694774E+03</pdfrwt>
<totfact> 0.51989026E+02</totfact>
</mgrwt>
</event>
<event>
 6      1 +2.5196620e+02 2.58333800e+02 7.54677100e-03 1.16558800e-01
       21 -1    0    0  503  502 +0.0000000000e+00 +0.0000000000e+00 +2.0861692133e+03 2.0861692133e+03 0.0000000000e+00 0.0000e+00 -1.0000e+00
       21 -1    0    0  504  503 -0.0000000000e+00 -0.0000000000e+00 -5.4746201896e+01 5.4746201896e+01 0.0000000000e+00 0.0000e+00 1.0000e+00
        6  1    1    2  501    0 -1.7503657455e+02 +5.2560056131e+01 +3.8633404991e+02 4.6106763067e+02 1.7300000000e+02 0.0000e+00 1.0000e+00
       -6  1    1    2    0  505 +2.1229194849e+02 -5.8825574482e+01 +1.3083852685e+03 1.3380318869e+03 1.7300000000e+02 0.0000e+00 -1.0000e+00
       21  1    1    2  504  501 -2.4973348132e+01 -9.7629631180e+00 +8.1141240672e+01 8.5456916066e+01 0.0000000000e+00 0.0000e+00 -1.0000e+00
       21  1    1    2  505  502 -1.2282025808e+01 +1.6028481469e+01 +2.5556245237e+02 2.5635898158e+02 0.0000000000e+00 0.0000e+00 -1.0000e+00
<mgrwt>
<rscale>  4 0.25833378E+03</rscale>
<asrwt>0</asrwt>
<pdfrwt beam="1">  1       21 0.32094905E+00 0.25833378E+03</pdfrwt>
<pdfrwt beam="2">  1       21 0.84224942E-02 0.25833378E+03</pdfrwt>
<totfact> 0.26364742E+03</totfact>
</mgrwt>
</event>
<event>
 6      1 +2.5196620e+02 1.76917400e+02 7.54677100e-03 9.49153200e-02
       21 -1    0    0  505  502 +0.0000000000e+00 +0.0000000000e+00 +2.4916524809e+02 2.4916524809e+02 0.0000000000e+00 0.0000e+00 1.0000e+00
       21 -1    0    0  504  503 -0.0000000000e+00 -0.0000000000e+00 -6.6556310382e+02 6.6556310382e+02 0.0000000000e+00 0.0000e+00 1.0000e+00
        6  1    1    2  501    0 -2.9003672929e+01 +1.0404367647e+02 -2.7293302799e+02 3.4071650595e+02 1.7300000000e+02 0.0000e+00 1.0000e+00
       -6  1    1    2    0  502 +4.1388412764e+01 -2.0643438816e+01 +1.2230435183e+02 2.1685595854e+02 1.7300000000e+02 0.0000e+00 1.0000e+00
       21  1    1    2  504  501 +1.4420216921e+01 -8.6492553350e+01 -3.0058173590e+02 3.1311065839e+02 0.0000000000e+00 0.0000e+00 1.0000e+00
       21  1    1    2  505  503 -2.6804956756e+01 +3.0923156960e+00 +3.4812556322e+01 4.4045229034e+01 0.0000000000e+00 0.0000e+00 1.0000e+00
<mgrwt>
<rscale>  4 0.17691744E+03</rscale>
<asrwt>0</asrwt>
<pdfrwt beam="1">  1       21 0.38333116E-01 0.17691744E+03</pdfrwt>
<pdfrwt beam="2">  1       21 0.10239432E+00 0.17691744E+03</pdfrwt>
<totfact> 0.51575102E+03</totfact>
</mgrwt>
</event>
<event>
 6      1 +2.5196620e+02 2.45635200e+02 7.54677100e-03 1.02366900e-01
       21 -1    0    0  503  502 +0.0000000000e+00 +0.0000000000e+00 +7.9758716162e+01 7.9758716162e+01 0.0000000000e+00 0.0000e+00 -1.0000e+00
       21 -1    0    0  505  503 -0.0000000000e+00 -0.0000000000e+00 -1.7325553403e+03 1.7325553403e+03 0.0000000000e+00 0.0000e+00 1.0000e+00
        6  1    1    2  501    0 -2.8034147980e+01 -5.6166420854e+01 -4.4416214612e+02 4.8078019128e+02 1.7300000000e+02 0.0000e+00 1.0000e+00
       -6  1    1    2    0  502 +9.6200090947e+01 -1.3674834267e+02 -2.3651693247e+02 3.3737786837e+02 1.7300000000e+02 0.0000e+00 -1.0000e+00
       21  1    1    2  504  501 -3.0148248519e+00 +3.0893143784e+01 -9.9227092399e+01 1.0396870379e+02 0.0000000000e+00 0.0000e+00 1.0000e+00
       21  1    1    2  505  504 -6.5151118116e+01 +1.6202161974e+02 -8.7289045319e+02 8.9018729306e+02 0.0000000000e+00 0.0000e+00 1.0000e+00
<mgrwt>
<rscale>  4 0.22853051E+03</rscale>
<asrwt>0</asrwt>
<pdfrwt beam="1">  1       21 0.12270572E-01 0.24563521E+03</pdfrwt>
<pdfrwt beam="2">  1       21 0.26654698E+00 0.24563521E+03</pdfrwt>
<totfact> 0.28431341E+03</totfact>
</mgrwt>
</event>
<event>
 6      1 +2.5196620e+02 1.84197000e+02 7.54677100e-03 1.14954000e-01
       21 -1    0    0  505  502 +0.0000000000e+00 +0.0000000000e+00 +5.1626224383e+02 5.1626224383e+02 0.0000000000e+00 0.0000e+00 1.0000e+00
       21 -1    0    0  502  503 -0.0000000000e+00 -0.0000000000e+00 -3.1019723966e+02 3.1019723966e+02 0.0000000000e+00 0.0000e+00 -1.0000e+00
        6  1    1    2  501    0 +7.9528969974e+01 +3.4134371506e+00 -1.7104015174e+02 2.5596922105e+02 1.7300000000e+02 0.0000e+00 -1.0000e+00
       -6  1    1    2    0  503 -1.1471520662e+01 -5.6341922435e+01 +3.4578299736e+01 1.8555502371e+02 1.7300000000e+02 0.0000e+00 1.0000e+00
       21  1    1    2  504  501 -1.0642968803e+02 +7.3551277673e+01 +2.8301993039e+02 3.1118700156e+02 0.0000000000e+00 0.0000e+00 1.0000e+00
       21  1    1    2  505  504 +3.8372238718e+01 -2.0622792389e+01 +5.9506925785e+01 7.3748237175e+01 0.0000000000e+00 0.0000e+00 1.0000e+00
<mgrwt>
<rscale>  4 0.18419700E+03</rscale>
<asrwt>0</asrwt>
<pdfrwt beam="1">  1       21 0.79424961E-01 0.18419700E+03</pdfrwt>
<pdfrwt beam="2">  1       21 0.47722652E-01 0.18419700E+03</pdfrwt>
<totfact> 0.59067230E+03</totfact>
</mgrwt>
</event>
<event>
 6      1 +2.5196620e+02 1.76887200e+02 7.54677100e-03 1.02776600e-01
       21 -1    0    0  504  502 +0.0000000000e+00 +0.0000000000e+00 +1.1467733575e+02 1.1467733575e+02 0.0000000000e+00 0.0000e+00 -1.0000e+00
       21 -1    0    0  501  503 -0.0000000000e+00 -0.0000000000e+00 -6.4944716973e+02 6.4944716973e+02 0.0000000000e+00 0.0000e+00 -1.0000e+00
        6  1    1    2  501    0 -4.6521617397e+01 +3.4206293951e+01 -4.1449307188e+02 4.5284416533e+02 1.7300000000e+02 0.0000e+00 -1.0000e+00
       -6  1    1    2    0  502 +5.5411334574e+00 +5.0062399740e+01 -1.1096742802e+02 2.1161218800e+02 1.7300000000e+02 0.0000e+00 -1.0000e+00
       21  1    1    2  504  505 +2.4359553075e+01 -7.3113146134e+01 +1.1704942226e+00 7.7073276954e+01 0.0000000000e+00 0.0000e+00 -1.0000e+00
       21  1    1    2  505  503 +1.6620930864e+01 -1.1155547556e+01 -1.0479828302e+01 2.2594875200e+01 0.0000000000e+00 0.0000e+00 1.0000e+00
<mgrwt>
<rscale>  4 0.17688719E+03</rscale>
<asrwt>0</asrwt>
<pdfrwt beam="1">  1       21 0.17642667E-01 0.17688719E+03</pdfrwt>
<pdfrwt beam="2">  1       21 0.99914951E-01 0.17688719E+03</pdfrwt>
<totfact> 0.24194396E+04</totfact>
</mgrwt>
</event>
<event>
 6      1 +2.5196620e+02 1.73707100e+02 7.54677100e-03 1.06301000e-01
       21 -1    0    0  503  502 +0.0000000000e+00 +0.0000000000e+00 +1.0063842810e+03 1.0063842810e+03 0.0000000000e+00 0.0000e+00 1.0000e+00
       21 -1    0    0  504  503 -0.0000000000e+00 -0.0000000000e+00 -2.6349453054e+02 2.6349453054e+02 0.0000000000e+00 0.0000e+00 1.0000e+00
        6  1    1    2  501    0 +8.4703906431e-01 +6.3492014311e+01 +2.0877928138e+02 2.7847754253e+02 1.7300000000e+02 0.0000e+00 -1.0000e+00
       -6  1    1    2    0  505 -1.5338351914e+01 +2.6289291852e+01 -1.9949834239e+01 1.7678627716e+02 1.7300000000e+02 0.0000e+00 -1.0000e+00
       21  1    1    2  504  501 +5.7728785052e+01 -1.2729807611e+01 -1.2053882956e+02 1.3425449734e+02 0.0000000000e+00 0.0000e+00 1.0000e+00
       21  1    1    2  505  502 -4.3237472203e+01 -7.7051498553e+01 +6.7459913286e+02 6.8036049451e+02 0.0000000000e+00 0.0000e+00 1.0000e+00
<mgrwt>
<rscale>  4 0.17370706E+03</rscale>
<asrwt>0</asrwt>
<pdfrwt beam="1">  1       21 0.15482835E+00 0.17370706E+03</pdfrwt>
<pdfrwt beam="2">  1       21 0.40537621E-01 0.17370706E+03</pdfrwt>
<totfact> 0.16435190E+03</totfact>
</mgrwt>
</event>
<event>
 6      1 +2.5196620e+02 3.16375400e+02 7.54677100e-03 1.06301000e-01
       21 -1    0    0  505  502 +0.0000000000e+00 +0.0000000000e+00 +4.1858590455e+02 4.1858590455e+02 0.0000000000e+00 0.0000e+00 1.0000e+00
       21 -1    0    0  501  503 -0.0000000000e+00 -0.0000000000e+00 -4.2344154046e+02 4.2344154046e+02 0.0000000000e+00 0.0000e+00 -1.0000e+00
        6  1    1    2  501    0 -1.4969949168e+02 +2.2375217661e+02 -2.1767777480e+01 3.2074571000e+02 1.7300000000e+02 0.0000e+00 -1.0000e+00
       -6  1    1    2    0  502 -5.1503856232e+01 -6.5575575676e+01 -4.1422313866e+01 1.9646274817e+02 1.7300000000e+02 0.0000e+00 -1.0000e+00
       21  1    1    2  504  503 +2.2667460232e+02 -1.5012530188e+02 +1.2989773023e+01 2.7219058728e+02 0.0000000000e+00 0.0000e+00 1.0000e+00
       21  1    1    2  505  504 -2.5471254414e+01 -8.0512990553e+00 +4.5344682410e+01 5.2628399565e+01 0.0000000000e+00 0.0000e+00 -1.0000e+00
<mgrwt>
<rscale>  4 0.28000970E+03</rscale>
<asrwt>0</asrwt>
<pdfrwt beam="1">  1       21 0.64397832E-01 0.31637541E+03</pdfrwt>
<pdfrwt beam="2">  1       21 0.65144852E-01 0.31637541E+03</pdfrwt>
<totfact> 0.44650997E+03</totfact>
</mgrwt>
</event>
<event>
 6      1 +2.5196620e+02 2.14617600e+02 7.54677100e-03 9.49153200e-02
       21 -1    0    0  503  502 +0.0000000000e+00 +0.0000000000e+00 +1.3522063236e+02 1.3522063236e+02 0.0000000000e+00 0.0000e+00 -1.0000e+00
       21 -1    0    0  504  503 -0.0000000000e+00 -0.0000000000e+00 -2.1696690630e+03 2.1696690630e+03 0.0000000000e+00 0.0000e+00 1.0000e+00
        6  1    1    2  501    0 -9.7481602963e+01 -1.2276355148e+02 -2.3826208468e+02 3.3357364027e+02 1.7300000000e+02 0.0000e+00 -1.0000e+00
       -6  1    1    2    0  505 +1.2883031452e+02 -3.1635478119e+01 -3.6081937749e+02 4.2156574409e+02 1.7300000000e+02 0.0000e+00 1.0000e+00
       21  1    1    2  504  501 -2.0019236572e+01 +1.7829195838e+02 -1.4837794276e+03 1.4945869604e+03 0.0000000000e+00 0.0000e+00 1.0000e+00
       21  1    1    2  505  502 -1.1329474988e+01 -2.3892928784e+01 +4.8412459168e+01 5.5163350624e+01 0.0000000000e+00 0.0000e+00 1.0000e+00
<mgrwt>
<rscale>  4 0.21461757E+03</rscale>
<asrwt>0</asrwt>
<pdfrwt beam="1">  1       21 0.20803173E-01 0.21461757E+03</pdfrwt>
<pdfrwt beam="2">  1       21 0.33379527E+00 0.21461757E+03</pdfrwt>
<totfact> 0.45207667E+02</totfact>
</mgrwt>
</event>
<event>
 6      1 +2.5196620e+02 1.89019300e+02 7.54677100e-03 1.06301000e-01
       21 -1    0    0  501  502 +0.0000000000e+00 +0.0000000000e+00 +2.8158426648e+02 2.8158426648e+02 0.0000000000e+00 0.0000e+00 1.0000e+00
       21 -1    0    0  504  503 -0.0000000000e+00 -0.0000000000e+00 -2.4368255723e+02 2.4368255723e+02 0.0000000000e+00 0.0000e+00 1.0000e+00
        6  1    1    2  501    0 -1.7410368800e+01 -5.1730323229e+01 +3.5927830019e+01 1.8492959810e+02 1.7300000000e+02 0.0000e+00 1.0000e+00
       -6  1    1    2    0  503 -1.4163932691e+01 +1.0552856452e+02 -6.8503107188e+01 2.1437950138e+02 1.7300000000e+02 0.0000e+00 1.0000e+00
       21  1    1    2  504  505 +2.4000003895e+01 -3.2497020642e+01 -1.0617668105e+01 4.1770700420e+01 0.0000000000e+00 0.0000e+00 1.0000e+00
       21  1    1    2  505  502 +7.5742975961e+00 -2.1301220650e+01 +8.1094654520e+01 8.4187023804e+01 0.0000000000e+00 0.0000e+00 1.0000e+00
<mgrwt>
<rscale>  4 0.18901926E+03</rscale>
<asrwt>0</asrwt>
<pdfrwt beam="1">  1       21 0.43320656E-01 0.18901926E+03</pdfrwt>
<pdfrwt beam="2">  1       21 0.37489624E-01 0.18901926E+03</pdfrwt>
<totfact> 0.35217269E+04</totfact>
</mgrwt>
</event>
<event>
 6      1 +2.5196620e+02 1.87655700e+02 7.54677100e-03 1.06301000e-01
       21 -1    0    0  504  502 +0.0000000000e+00 +0.0000000000e+00 +4.3492266533e+02 4.3492266533e+02 0.0000000000e+00 0.0000e+00 1.0000e+00
       21 -1    0    0  501  503 -0.0000000000e+00 -0.0000000000e+00 -1.6436423872e+02 1.6436423872e+02 0.0000000000e+00 0.0000e+00 1.0000e+00
        6  1    1    2  501    0 +4.9663584146e+01 +4.7492088767e+00 +1.8082024781e+02 2.5517442778e+02 1.7300000000e+02 0.0000e+00 1.0000e+00
       -6  1    1    2    0  505 -6.3907882024e+01 +8.2246491484e+01 +6.9032646195e+01 2.1340854947e+02 1.7300000000e+02 0.0000e+00 1.0000e+00
       21  1    1    2  504  503 -2.0667464701e+01 -4.9588818677e+01 -2.7546199229e+01 6.0373737063e+01 0.0000000000e+00 0.0000e+00 1.0000e+00
       21  1    1    2  505  502 +3.4911762580e+01 -3.7406881683e+01 +4.8251731839e+01 7.0330189742e+01 0.0000000000e+00 0.0000e+00 1.0000e+00
<mgrwt>
<rscale>  4 0.18765570E+03</rscale>
<asrwt>0</asrwt>
<pdfrwt beam="1">  1       21 0.66911179E-01 0.18765570E+03</pdfrwt>
<pdfrwt beam="2">  1       21 0.25286806E-01 0.18765570E+03</pdfrwt>
<totfact> 0.30403582E+04</totfact>
</mgrwt>
</event>
<event>
 6      1 +2.5196620e+02 2.47643400e+02 7.54677100e-03 1.16268000e-01
       21 -1    0    0  501  502 +0.0000000000e+00 +0.0000000000e+00 +1.0290680183e+03 1.0290680183e+03 0.0000000000e+00 0.0000e+00 -1.0000e+00
       21 -1    0    0  505  503 -0.0000000000e+00 -0.0000000000e+00 -2.4638079345e+02 2.4638079345e+02 0.0000000000e+00 0.0000e+00 -1.0000e+00
        6  1    1    2  501    0 -1.6814713532e+02 -9.6550978128e+01 +6.2835155940e+02 6.7996340540e+02 1.7300000000e+02 0.0000e+00 -1.0000e+00
       -6  1    1    2    0  503 +2.1591620553e+02 +1.1291749442e+02 +1.4831789165e+02 3.3361259769e+02 1.7300000000e+02 0.0000e+00 -1.0000e+00
       21  1    1    2  504  502 +3.6306959752e+01 +4.8588950377e+01 +1.0201334454e+02 1.1868362941e+02 0.0000000000e+00 0.0000e+00 1.0000e+00
       21  1    1    2  505  504 -8.4076029956e+01 -6.4955466672e+01 -9.5995570716e+01 1.4318917927e+02 0.0000000000e+00 0.0000e+00 -1.0000e+00
<mgrwt>
<rscale>  4 0.24764342E+03</rscale>
<asrwt>0</asrwt>
<pdfrwt beam="1">  1       21 0.15831815E+00 0.24764342E+03</pdfrwt>
<pdfrwt beam="2">  1       21 0.37904738E-01 0.24764342E+03</pdfrwt>
<totfact> 0.16550541E+03</totfact>
</mgrwt>
</event>
<event>
 6      1 +2.5196620e+02 2.77062800e+02 7.54677100e-03 9.49153200e-02
       21 -1    0    0  505  502 +0.0000000000e+00 +0.0000000000e+00 +1.1490466527e+03 1.1490466527e+03 0.0000000000e+00 0.0000e+00 -1.0000e+00
       21 -1    0    0  501  503 -0.0000000000e+00 -0.0000000000e+00 -1.6833689120e+02 1.6833689120e+02 0.0000000000e+00 0.0000e+00 -1.0000e+00
        6  1    1    2  501    0 -5.4411908958e+01 -9.0130801464e+01 +1.6863419871e+02 2.6353502649e+02 1.7300000000e+02 0.0000e+00 1.0000e+00
       -6  1    1    2    0  502 -4.9119644256e+01 -1.8949745070e+02 +6.4984198273e+02 7.0038962427e+02 1.7300000000e+02 0.0000e+00 -1.0000e+00
       21  1    1    2  504  503 -1.2743696338e+01 +1.7779364551e+01 -3.9761039902e+00 2.2233240950e+01 0.0000000000e+00 0.0000e+00 -1.0000e+00
       21  1    1    2  505  504 +1.1627524955e+02 +2.6184888761e+02 +1.6620968407e+02 3.3122565221e+02 0.0000000000e+00 0.0000e+00 -1.0000e+00
<mgrwt>
<rscale>  4 0.25578108E+03</rscale>
<asrwt>0</asrwt>
<pdfrwt beam="1">  1       21 0.17677640E+00 0.27706276E+03</pdfrwt>
<pdfrwt beam="2">  1       21 0.25897984E-01 0.27706276E+03</pdfrwt>
<totfact> 0.25298000E+03</totfact>
</mgrwt>
</event>
<event>
 6      1 +2.5196620e+02 3.57062100e+02 7.54677100e-03 9.49153200e-02
       21 -1    0    0  504  502 +0.0000000000e+00 +0.0000000000e+00 +1.4355068394e+03 1.4355068394e+03 0.0000000000e+00 0.0000e+00 1.0000e+00
       21 -1    0    0  501  503 -0.0000000000e+00 -0.0000000000e+00 -3.9013816329e+02 3.9013816329e+02 0.0000000000e+00 0.0000e+00 -1.0000e+00
        6  1    1    2  501    0 +1.3784666731e+02 +2.7179472682e+02 +1.0486952535e+03 1.1056965280e+03 1.7300000000e+02 0.0000e+00 1.0000e+00
       -6  1    1    2    0  505 -5.7480853720e+01 -3.6639970461e+02 -6.2986094344e+01 4.1406405322e+02 1.7300000000e+02 0.0000e+00 -1.0000e+00
       21  1    1    2  504  503 -1.0310147473e+02 +1.0268536485e+02 -7.8702933060e+01 1.6543382338e+02 0.0000000000e+00 0.0000e+00 -1.0000e+00
       21  1    1    2  505  502 +2.2735661139e+01 -8.0803870623e+00 +1.3836244996e+02 1.4045059808e+02 0.0000000000e+00 0.0000e+00 -1.0000e+00
<mgrwt>
<rscale>  4 0.35706206E+03</rscale>
<asrwt>0</asrwt>
<pdfrwt beam="1">  1       21 0.22084720E+00 0.35706206E+03</pdfrwt>
<pdfrwt beam="2">  1       21 0.60021257E-01 0.35706206E+03</pdfrwt>
<totfact> 0.21929612E+02</totfact>
</mgrwt>
</event>
<event>
 6      1 +2.5196620e+02 1.73849400e+02 7.54677100e-03 1.16558800e-01
       21 -1    0    0  503  502 +0.0000000000e+00 +0.0000000000e+00 +4.5300251101e+02 4.5300251101e+02 0.0000000000e+00 0.0000e+00 1.0000e+00
       21 -1    0    0  504  503 -0.0000000000e+00 -0.0000000000e+00 -6.2254892983e+02 6.2254892983e+02 0.0000000000e+00 0.0000e+00 -1.0000e+00
        6  1    1    2  501    0 +1.9074166597e+01 +2.9090878996e+00 -4.6527446412e+02 4.9677118836e+02 1.7300000000e+02 0.0000e+00 -1.0000e+00
       -6  1    1    2    0  505 -5.0099701272e+00 -1.7765803957e+01 -7.5082697039e+01 1.8949178079e+02 1.7300000000e+02 0.0000e+00 1.0000e+00
       21  1    1    2  504  501 +1.5196373236e+01 -1.4458507397e+01 +5.5644532700e+00 2.1701182822e+01 0.0000000000e+00 0.0000e+00 1.0000e+00
       21  1    1    2  505  502 -2.9260569706e+01 +2.9315223455e+01 +3.6524628906e+02 3.6758728887e+02 0.0000000000e+00 0.0000e+00 1.0000e+00
<mgrwt>
<rscale>  4 0.17384944E+03</rscale>
<asrwt>0</asrwt>
<pdfrwt beam="1">  1       21 0.69692694E-01 0.17384944E+03</pdfrwt>
<pdfrwt beam="2">  1       21 0.95776758E-01 0.17384944E+03</pdfrwt>
<totfact> 0.17316456E+03</totfact>
</mgrwt>
</event>
<event>
 6      1 +2.5196620e+02 2.56971300e+02 7.54677100e-03 1.16321900e-01
       21 -1    0    0  505  502 +0.0000000000e+00 +0.0000000000e+00 +9.7031847850e+02 9.7031847850e+02 0.0000000000e+00 0.0000e+00 1.0000e+00
       21 -1    0    0  504  503 -0.0000000000e+00 -0.0000000000e+00 -4.2093457214e+02 4.2093457214e+02 0.0000000000e+00 0.0000e+00 -1.0000e+00
        6  1    1    2  501    0 -1.3131970826e+02 -1.3587555655e+02 +7.7869142975e+02 8.1975385050e+02 1.7300000000e+02 0.0000e+00 1.0000e+00
       -6  1    1    2    0  502 +1.7319422968e+02 +1.0405214366e+02 +2.4600136525e+01 2.6712779061e+02 1.7300000000e+02 0.0000e+00 -1.0000e+00
       21  1    1    2  504  501 -4.6339438740e+01 +8.3671053651e-01 +2.1597846286e+00 4.6397288034e+01 0.0000000000e+00 0.0000e+00 -1.0000e+00
       21  1    1    2  505  503 +4.4649173151e+00 +3.0986702350e+01 -2.5606744454e+02 2.5797412150e+02 0.0000000000e+00 0.0000e+00 -1.0000e+00
<mgrwt>
<rscale>  4 0.25697135E+03</rscale>
<asrwt>0</asrwt>
<pdfrwt beam="1">  1       21 0.14927977E+00 0.25697135E+03</pdfrwt>
<pdfrwt beam="2">  1       21 0.64759165E-01 0.25697135E+03</pdfrwt>
<totfact> 0.62485412E+02</totfact>
</mgrwt>
</event>
<event>
 6      1 +2.5196620e+02 1.74599000e+02 7.54677100e-03 1.02776600e-01
       21 -1    0    0  501  502 +0.0000000000e+00 +0.0000000000e+00 +8.0445430512e+02 8.0445430512e+02 0.0000000000e+00 0.0000e+00 1.0000e+00
       21 -1    0    0  504  503 -0.0000000000e+00 -0.0000000000e+00 -1.2466272464e+02 1.2466272464e+02 0.0000000000e+00 0.0000e+00 1.0000e+00
        6  1    1    2  501    0 +7.3267355054e+01 +1.6319540824e+01 +2.7838813364e+02 3.3624899357e+02 1.7300000000e+02 0.0000e+00 1.0000e+00
       -6  1    1    2    0  503 +9.0613123633e+01 +6.8058981765e+01 +2.9430737561e+02 3.5970626143e+02 1.7300000000e+02 0.0000e+00 1.0000e+00
       21  1    1    2  504  505 -1.0710556042e+02 -1.0173599493e+02 +7.4936384653e+01 1.6564201002e+02 0.0000000000e+00 0.0000e+00 1.0000e+00
       21  1    1    2  505  502 -5.6774918262e+01 +1.7357472339e+01 +3.2159686582e+01 6.7519764741e+01 0.0000000000e+00 0.0000e+00 1.0000e+00
<mgrwt>
<rscale>  4 0.17459901E+03</rscale>
<asrwt>0</asrwt>
<pdfrwt beam="1">  1       21 0.12376220E+00 0.17459901E+03</pdfrwt>
<pdfrwt beam="2">  1       21 0.19178881E-01 0.17459901E+03</pdfrwt>
<totfact> 0.12364651E+04</totfact>
</mgrwt>
</event>
<event>
 6      1 +2.5196620e+02 2.78726500e+02 7.54677100e-03 9.28652600e-02
       21 -1    0    0  505  502 +0.0000000000e+00 +0.0000000000e+00 +1.0540318446e+02 1.0540318446e+02 0.0000000000e+00 0.0000e+00 -1.0000e+00
       21 -1    0    0  504  503 -0.0000000000e+00 -0.0000000000e+00 -1.4817281040e+03 1.4817281040e+03 0.0000000000e+00 0.0000e+00 1.0000e+00
        6  1    1    2  501    0 -1.4968104421e+02 +8.4449654279e+01 -4.5060690812e+02 5.1235899987e+02 1.7300000000e+02 0.0000e+00 1.0000e+00
       -6  1    1    2    0  502 +1.5053846452e+02 -2.1930416469e+02 -3.2775078105e+02 4.5618605900e+02 1.7300000000e+02 0.0000e+00 -1.0000e+00
       21  1    1    2  504  501 -3.4069523692e+01 +5.1677285451e+01 -1.6000656592e+02 1.7156157908e+02 0.0000000000e+00 0.0000e+00 -1.0000e+00
       21  1    1    2  505  503 +3.3212103381e+01 +8.3177224963e+01 -4.3796066448e+02 4.4702465055e+02 0.0000000000e+00 0.0000e+00 1.0000e+00
<mgrwt>
<rscale>  4 0.27872652E+03</rscale>
<asrwt>0</asrwt>
<pdfrwt beam="1">  1       21 0.16215875E-01 0.27872652E+03</pdfrwt>
<pdfrwt beam="2">  1       21 0.22795817E+00 0.27872652E+03</pdfrwt>
<totfact> 0.28370898E+03</totfact>
</mgrwt>
</event>
<event>
 6      1 +2.5196620e+02 1.89020500e+02 7.54677100e-03 1.02776600e-01
       21 -1    0    0  501  502 +0.0000000000e+00 +0.0000000000e+00 +1.2570349272e+03 1.2570349272e+03 0.0000000000e+00 0.0000e+00 -1.0000e+00
       21 -1    0    0  504  503 -0.0000000000e+00 -0.0000000000e+00 -4.2382587884e+02 4.2382587884e+02 0.0000000000e+00 0.0000e+00 1.0000e+00
        6  1    1    2  501    0 +9.2897971484e+01 -9.5078384623e+01 +5.9436894993e+02 6.3314562382e+02 1.7300000000e+02 0.0000e+00 -1.0000e+00
       -6  1    1    2    0  503 +6.7228118158e+00 +5.1158474960e+01 +6.2189313499e+02 6.4756656577e+02 1.7300000000e+02 0.0000e+00 -1.0000e+00
       21  1    1    2  504  505 -3.1724844659e+01 +2.0671075282e+01 -1.9956013184e+02 2.0312066695e+02 0.0000000000e+00 0.0000e+00 1.0000e+00
       21  1    1    2  505  502 -6.7895938641e+01 +2.3248834381e+01 -1.8349290474e+02 1.9702794947e+02 0.0000000000e+00 0.0000e+00 1.0000e+00
<mgrwt>
<rscale>  4 0.18902050E+03</rscale>
<asrwt>0</asrwt>
<pdfrwt beam="1">  1       21 0.19338999E+00 0.18902050E+03</pdfrwt>
<pdfrwt beam="2">  1       21 0.65203982E-01 0.18902050E+03</pdfrwt>
<totfact> 0.32227304E+02</totfact>
</mgrwt>
</event>
<event>
 6      1 +2.5196620e+02 1.85776000e+02 7.54677100e-03 1.06301000e-01
       21 -1    0    0  505  502 +0.0000000000e+00 +0.0000000000e+00 +5.8672797146e+02 5.8672797146e+02 0.0000000000e+00 0.0000e+00 1.0000e+00
       21 -1    0    0  504  503 -0.0000000000e+00 -0.0000000000e+00 -1.9125388681e+02 1.9125388681e+02 0.0000000000e+00 0.0000e+00 -1.0000e+00
        6  1    1    2  501    0 +9.0753134668e+01 +6.9710515341e-01 -7.1740772316e+01 2.0811620749e+02 1.7300000000e+02 0.0000e+00 -1.0000e+00
       -6  1    1    2    0  502 -6.1954201616e+01 -2.0312404786e+01 +4.5488506893e+02 4.9101969698e+02 1.7300000000e+02 0.0000e+00 1.0000e+00
       21  1    1    2  504  501 +1.8303040184e+01 +1.1871577006e+01 -1.2391978698e+01 2.5089773945e+01 0.0000000000e+00 0.0000e+00 1.0000e+00
       21  1    1    2  505  503 -4.7101973235e+01 +7.7437226271e+00 +2.4721766732e+01 5.3756179860e+01 0.0000000000e+00 0.0000e+00 -1.0000e+00
<mgrwt>
<rscale>  4 0.18577602E+03</rscale>
<asrwt>0</asrwt>
<pdfrwt beam="1">  1       21 0.90265841E-01 0.18577602E+03</pdfrwt>
<pdfrwt beam="2">  1       21 0.29423675E-01 0.18577602E+03</pdfrwt>
<totfact> 0.11601008E+04</totfact>
</mgrwt>
</event>
<event>
 6      1 +2.5196620e+02 2.49090700e+02 7.54677100e-03 1.16128000e-01
       21 -1    0    0  501  502 +0.0000000000e+00 +0.0000000000e+00 +2.7530585184e+02 2.7530585184e+02 0.0000000000e+00 0.0000e+00 1.0000e+00
       21 -1    0    0  502  503 -0.0000000000e+00 -0.0000000000e+00 -1.3111958280e+03 1.3111958280e+03 0.0000000000e+00 0.0000e+00 -1.0000e+00
        6  1    1    2  501    0 +1.2432518945e+02 -3.5243689570e+01 -8.5306232330e+01 2.3217455429e+02 1.7300000000e+02 0.0000e+00 -1.0000e+00
       -6  1    1    2    0  504 -1.9613414530e+02 -1.4795294232e+02 +6.9299324718e+01 3.0836678242e+02 1.7300000000e+02 0.0000e+00 1.0000e+00
       21  1    1    2  504  505 -1.8870151377e+01 +9.1914494429e+00 -2.8780442618e+01 3.5621331154e+01 0.0000000000e+00 0.0000e+00 -1.0000e+00
       21  1    1    2  505  503 +9.0679107228e+01 +1.7400518245e+02 -9.9110262594e+02 1.0103390120e+03 0.0000000000e+00 0.0000e+00 -1.0000e+00
<mgrwt>
<rscale>  4 0.24909074E+03</rscale>
<asrwt>0</asrwt>
<pdfrwt beam="1">  1       21 0.42354746E-01 0.24909074E+03</pdfrwt>
<pdfrwt beam="2">  1       21 0.20172244E+00 0.24909074E+03</pdfrwt>
<totfact> 0.66166916E+02</totfact>
</mgrwt>
</event>
<event>
 6      1 +2.5196620e+02 2.26411000e+02 7.54677100e-03 1.02776600e-01
       21 -1    0    0  501  502 +0.0000000000e+00 +0.0000000000e+00 +1.7190976990e+02 1.7190976990e+02 0.0000000000e+00 0.0000e+00 1.0000e+00
       21 -1    0    0  505  503 -0.0000000000e+00 -0.0000000000e+00 -1.5060679721e+03 1.5060679721e+03 0.0000000000e+00 0.0000e+00 1.0000e+00
        6  1    1    2  501    0 -1.1975812900e+02 +1.2317324917e+02 +2.1503564669e+01 2.4475510631e+02 1.7300000000e+02 0.0000e+00 1.0000e+00
       -6  1    1    2    0  503 +1.0957963722e+02 +1.1191802315e+01 -2.7304945045e+02 3.4149371256e+02 1.7300000000e+02 0.0000e+00 1.0000e+00
       21  1    1    2  504  502 +1.1220845706e+01 -5.1332285204e+01 -2.8478386555e+02 2.8959067831e+02 0.0000000000e+00 0.0000e+00 1.0000e+00
       21  1    1    2  505  504 -1.0423539255e+00 -8.3032766277e+01 -7.9782845092e+02 8.0213824486e+02 0.0000000000e+00 0.0000e+00 1.0000e+00
<mgrwt>
<rscale>  4 0.22641100E+03</rscale>
<asrwt>0</asrwt>
<pdfrwt beam="1">  1       21 0.26447656E-01 0.22641100E+03</pdfrwt>
<pdfrwt beam="2">  1       21 0.23170277E+00 0.22641100E+03</pdfrwt>
<totfact> 0.11189761E+03</totfact>
</mgrwt>
</event>
<event>
 6      1 +2.5196620e+02 2.47000900e+02 7.54677100e-03 1.14954000e-01
       21 -1    0    0  501  502 +0.0000000000e+00 +0.0000000000e+00 +5.6574373309e+02 5.6574373309e+02 0.0000000000e+00 0.0000e+00 1.0000e+00
       21 -1    0    0  505  503 -0.0000000000e+00 -0.0000000000e+00 -3.8943306454e+02 3.8943306454e+02 0.0000000000e+00 0.0000e+00 -1.0000e+00
        6  1    1    2  501    0 +1.2416397429e+02 +1.3913040900e+02 -2.4063885076e+02 3.5015713575e+02 1.7300000000e+02 0.0000e+00 -1.0000e+00
       -6  1    1    2    0  503 -1.2084048366e+02 -9.1570311769e+01 +5.2813807027e+01 2.3602085226e+02 1.7300000000e+02 0.0000e+00 1.0000e+00
       21  1    1    2  504  502 -2.0147151638e+00 -2.1325690190e+01 +2.8092973232e+02 2.8174520162e+02 0.0000000000e+00 0.0000e+00 1.0000e+00
       21  1    1    2  505  504 -1.3087754704e+00 -2.6234407039e+01 +8.3205979971e+01 8.7253607999e+01 0.0000000000e+00 0.0000e+00 1.0000e+00
<mgrwt>
<rscale>  4 0.24700090E+03</rscale>
<asrwt>0</asrwt>
<pdfrwt beam="1">  1       21 0.87037497E-01 0.24700090E+03</pdfrwt>
<pdfrwt beam="2">  1       21 0.59912779E-01 0.24700090E+03</pdfrwt>
<totfact> 0.28280513E+03</totfact>
</mgrwt>
</event>
<event>
 6      1 +2.5196620e+02 1.84642600e+02 7.54677100e-03 1.07655700e-01
       21 -1    0    0  501  502 +0.0000000000e+00 +0.0000000000e+00 +4.0790197335e+02 4.0790197335e+02 0.0000000000e+00 0.0000e+00 1.0000e+00
       21 -1    0    0  504  503 -0.0000000000e+00 -0.0000000000e+00 -3.6173595599e+02 3.6173595599e+02 0.0000000000e+00 0.0000e+00 -1.0000e+00
        6  1    1    2  501    0 +3.0216798392e+01 +8.3883531467e+01 +1.3015713799e+02 2.3413539315e+02 1.7300000000e+02 0.0000e+00 1.0000e+00
       -6  1    1    2    0  505 -3.0456743958e+00 -4.5197451769e+01 +1.4361176787e+02 2.2935872700e+02 1.7300000000e+02 0.0000e+00 1.0000e+00
       21  1    1    2  504  502 +4.2796580905e+00 +4.1106259901e+01 -2.1561854998e+02 2.1954361564e+02 0.0000000000e+00 0.0000e+00 -1.0000e+00
       21  1    1    2  505  503 -3.1450782086e+01 -7.9792339599e+01 -1.1984338517e+01 8.6600193546e+01 0.0000000000e+00 0.0000e+00 -1.0000e+00
<mgrwt>
<rscale>  4 0.18464258E+03</rscale>
<asrwt>0</asrwt>
<pdfrwt beam="1">  1       21 0.62754150E-01 0.18464258E+03</pdfrwt>
<pdfrwt beam="2">  1       21 0.55651685E-01 0.18464258E+03</pdfrwt>
<totfact> 0.71986889E+03</totfact>
</mgrwt>
</event>
<event>
 6      1 +2.5196620e+02 2.09671300e+02 7.54677100e-03 1.07655700e-01
       21 -1    0    0  501  502 +0.0000000000e+00 +0.0000000000e+00 +5.3470353586e+02 5.3470353586e+02 0.0000000000e+00 0.0000e+00 1.0000e+00
       21 -1    0    0  504  503 -0.0000000000e+00 -0.0000000000e+00 -3.3066847977e+02 3.3066847977e+02 0.0000000000e+00 0.0000e+00 1.0000e+00
        6  1    1    2  501    0 -1.4873961404e+01 -1.4564362310e+02 +9.2898362684e+01 2.4493347151e+02 1.7300000000e+02 0.0000e+00 -1.0000e+00
       -6  1    1    2    0  505 -1.5497981137e+01 +1.0738330521e+02 +3.1497091676e+02 3.7537586505e+02 1.7300000000e+02 0.0000e+00 1.0000e+00
       21  1    1    2  504  502 +1.5372230952e+01 +1.6169332576e+01 -2.1497504079e+02 2.1612963926e+02 0.0000000000e+00 0.0000e+00 1.0000e+00
       21  1    1    2  505  503 +1.4999711589e+01 +2.2090985306e+01 +1.1140817448e+01 2.8933039816e+01 0.0000000000e+00 0.0000e+00 -1.0000e+00
<mgrwt>
<rscale>  4 0.20967126E+03</rscale>
<asrwt>0</asrwt>
<pdfrwt beam="1">  1       21 0.82262083E-01 0.20967126E+03</pdfrwt>
<pdfrwt beam="2">  1       21 0.50872074E-01 0.20967126E+03</pdfrwt>
<totfact> 0.46827712E+03</totfact>
</mgrwt>
</event>
<event>
 6      1 +2.5196620e+02 2.97150700e+02 7.54677100e-03 9.49153200e-02
       21 -1    0    0  505  502 +0.0000000000e+00 +0.0000000000e+00 +2.1735317408e+03 2.1735317408e+03 0.0000000000e+00 0.0000e+00 -1.0000e+00
       21 -1    0    0  504  503 -0.0000000000e+00 -0.0000000000e+00 -3.1022668766e+02 3.1022668766e+02 0.0000000000e+00 0.0000e+00 -1.0000e+00
        6  1    1    2  501    0 +2.3190781532e+02 +7.2713903894e+01 +3.2131420176e+02 4.3845223557e+02 1.7300000000e+02 0.0000e+00 -1.0000e+00
       -6  1    1    2    0  502 -2.1647139503e+02 -1.2892827866e+02 +1.1663490021e+03 1.2057285601e+03 1.7300000000e+02 0.0000e+00 -1.0000e+00
       21  1    1    2  504  501 -3.6752746739e+01 +6.6751697975e+01 -2.2546855078e+02 2.3799710285e+02 0.0000000000e+00 0.0000e+00 -1.0000e+00
       21  1    1    2  505  503 +2.1316326447e+01 -1.0537323211e+01 +6.0111040010e+02 6.0158052999e+02 0.0000000000e+00 0.0000e+00 -1.0000e+00
<mgrwt>
<rscale>  4 0.29715072E+03</rscale>
<asrwt>0</asrwt>
<pdfrwt beam="1">  1       21 0.33438949E+00 0.29715072E+03</pdfrwt>
<pdfrwt beam="2">  1       21 0.47727184E-01 0.29715072E+03</pdfrwt>
<totfact> 0.78476923E+01</totfact>
</mgrwt>
</event>
<event>
 6      1 +2.5196620e+02 1.95753400e+02 7.54677100e-03 9.49153200e-02
       21 -1    0    0  505  502 +0.0000000000e+00 +0.0000000000e+00 +3.4298026646e+02 3.4298026646e+02 0.0000000000e+00 0.0000e+00 1.0000e+00
       21 -1    0    0  504  503 -0.0000000000e+00 -0.0000000000e+00 -2.6573732531e+02 2.6573732531e+02 0.0000000000e+00 0.0000e+00 1.0000e+00
        6  1    1    2  501    0 +5.7489403129e+01 +3.5267168604e+01 -1.1570148185e+02 2.1877988380e+02 1.7300000000e+02 0.0000e+00 1.0000e+00
       -6  1    1    2    0  502 -4.8090634519e+01 -8.9306708616e+01 +2.2551763234e+02 3.0178734206e+02 1.7300000000e+02 0.0000e+00 1.0000e+00
       21  1    1    2  504  501 +9.6268778031e+00 +3.7140027400e+01 -4.5574371478e+01 5.9574170134e+01 0.0000000000e+00 0.0000e+00 -1.0000e+00
       21  1    1    2  505  503 -1.9025646413e+01 +1.6899512612e+01 +1.3001162139e+01 2.8576195774e+01 0.0000000000e+00 0.0000e+00 -1.0000e+00
<mgrwt>
<rscale>  4 0.19575338E+03</rscale>
<asrwt>0</asrwt>
<pdfrwt beam="1">  1       21 0.52766195E-01 0.19575338E+03</pdfrwt>
<pdfrwt beam="2">  1       21 0.40882665E-01 0.19575338E+03</pdfrwt>
<totfact> 0.19583051E+04</totfact>
</mgrwt>
</event>
<event>
 6      1 +2.5196620e+02 2.99624800e+02 7.54677100e-03 1.02776600e-01
       21 -1    0    0  501  502 +0.0000000000e+00 +0.0000000000e+00 +1.0311497367e+03 1.0311497367e+03 0.0000000000e+00 0.0000e+00 1.0000e+00
       21 -1    0    0  502  503 -0.0000000000e+00 -0.0000000000e+00 -1.7061347691e+02 1.7061347691e+02 0.0000000000e+00 0.0000e+00 -1.0000e+00
        6  1    1    2  501    0 +2.3598149571e+02 +7.4781449844e+01 +6.2993743847e+02 6.9859123094e+02 1.7300000000e+02 0.0000e+00 1.0000e+00
       -6  1    1    2    0  504 -2.4811902349e+02 +9.6675504298e+00 +2.1845215252e+02 3.7323833443e+02 1.7300000000e+02 0.0000e+00 -1.0000e+00
       21  1    1    2  504  505 -4.0468006193e+01 -2.0097069791e+01 -3.6413138763e+00 4.5330022128e+01 0.0000000000e+00 0.0000e+00 -1.0000e+00
       21  1    1    2  505  503 +5.2605533977e+01 -6.4351930483e+01 +1.5787982720e+01 8.4603626165e+01 0.0000000000e+00 0.0000e+00 1.0000e+00
<mgrwt>
<rscale>  4 0.29962482E+03</rscale>
<asrwt>0</asrwt>
<pdfrwt beam="1">  1       21 0.15863842E+00 0.29962482E+03</pdfrwt>
<pdfrwt beam="2">  1       21 0.26248228E-01 0.29962482E+03</pdfrwt>
<totfact> 0.32858344E+03</totfact>
</mgrwt>
</event>
<event>
 6      1 +2.5196620e+02 2.42473900e+02 7.54677100e-03 1.06301000e-01
       21 -1    0    0  505  502 +0.0000000000e+00 +0.0000000000e+00 +6.1533228217e+02 6.1533228217e+02 0.0000000000e+00 0.0000e+00 1.0000e+00
       21 -1    0    0  501  503 -0.0000000000e+00 -0.0000000000e+00 -2.6561838906e+02 2.6561838906e+02 0.0000000000e+00 0.0000e+00 -1.0000e+00
        6  1    1    2  501    0 +9.6401395167e+00 +1.6607999404e+02 +5.3860017667e+01 2.4597845071e+02 1.7300000000e+02 0.0000e+00 -1.0000e+00
       -6  1    1    2    0  502 +1.1500183315e+01 -1.8719298103e+02 +3.6765032782e+02 4.4751450246e+02 1.7300000000e+02 0.0000e+00 1.0000e+00
       21  1    1    2  504  503 -3.8737187701e+01 -5.4639147531e+00 -1.2192845117e+02 1.2805065903e+02 0.0000000000e+00 0.0000e+00 -1.0000e+00
       21  1    1    2  505  504 +1.7596864869e+01 +2.6576901743e+01 +5.0131998792e+01 5.9407059028e+01 0.0000000000e+00 0.0000e+00 1.0000e+00
<mgrwt>
<rscale>  4 0.24247391E+03</rscale>
<asrwt>0</asrwt>
<pdfrwt beam="1">  1       21 0.94666505E-01 0.24247391E+03</pdfrwt>
<pdfrwt beam="2">  1       21 0.40864368E-01 0.24247391E+03</pdfrwt>
<totfact> 0.51983146E+03</totfact>
</mgrwt>
</event>
<event>
 6      1 +2.5196620e+02 1.86316800e+02 7.54677100e-03 1.06301000e-01
       21 -1    0    0  505  502 +0.0000000000e+00 +0.0000000000e+00 +1.0168597926e+02 1.0168597926e+02 0.0000000000e+00 0.0000e+00 -1.0000e+00
       21 -1    0    0  501  503 -0.0000000000e+00 -0.0000000000e+00 -9.5703157052e+02 9.5703157052e+02 0.0000000000e+00 0.0000e+00 -1.0000e+00
        6  1    1    2  501    0 -4.6969798666e+01 +7.0461453596e+01 -3.5840798021e+02 4.0688605126e+02 1.7300000000e+02 0.0000e+00 -1.0000e+00
       -6  1    1    2    0  502 +6.7510257630e+01 -1.5983408609e+01 -8.4391357498e+01 2.0460695359e+02 1.7300000000e+02 0.0000e+00 -1.0000e+00
       21  1    1    2  504  503 +3.7951913481e+01 +7.5560037551e+00 -3.1624181309e+02 3.1860057325e+02 0.0000000000e+00 0.0000e+00 -1.0000e+00
       21  1    1    2  505  504 -5.8492372445e+01 -6.2034048742e+01 -9.6304440468e+01 1.2862397168e+02 0.0000000000e+00 0.0000e+00 -1.0000e+00
<mgrwt>
<rscale>  4 0.18631680E+03</rscale>
<asrwt>0</asrwt>
<pdfrwt beam="1">  1       21 0.15643997E-01 0.18631680E+03</pdfrwt>
<pdfrwt beam="2">  1       21 0.14723562E+00 0.18631680E+03</pdfrwt>
<totfact> 0.11456978E+04</totfact>
</mgrwt>
</event>
<event>
 6      1 +2.5196620e+02 2.00830700e+02 7.54677100e-03 1.09711200e-01
       21 -1    0    0  504  502 +0.0000000000e+00 +0.0000000000e+00 +5.9257170564e+02 5.9257170564e+02 0.0000000000e+00 0.0000e+00 -1.0000e+00
       21 -1    0    0  502  503 -0.0000000000e+00 -0.0000000000e+00 -1.1511265190e+03 1.1511265190e+03 0.0000000000e+00 0.0000e+00 1.0000e+00
        6  1    1    2  501    0 +1.2861227353e+02 -9.5717546446e+01 -6.3772218222e+02 6.7994231174e+02 1.7300000000e+02 0.0000e+00 1.0000e+00
       -6  1    1    2    0  503 -5.5351701592e+01 +1.3794091710e+01 -4.5951524594e+02 4.9430491509e+02 1.7300000000e+02 0.0000e+00 -1.0000e+00
       21  1    1    2  504  505 -6.0775536009e+00 +2.3065697287e+01 +4.2117917022e+02 4.2185407012e+02 0.0000000000e+00 0.0000e+00 -1.0000e+00
       21  1    1    2  505  501 -6.7183018338e+01 +5.8857757449e+01 +1.1750344459e+02 1.4759692766e+02 0.0000000000e+00 0.0000e+00 1.0000e+00
<mgrwt>
<rscale>  4 0.20083073E+03</rscale>
<asrwt>0</asrwt>
<pdfrwt beam="1">  1       21 0.91164879E-01 0.20083073E+03</pdfrwt>
<pdfrwt beam="2">  1       21 0.17709639E+00 0.20083073E+03</pdfrwt>
<totfact> 0.19218624E+02</totfact>
</mgrwt>
</event>
<event>
 6      1 +2.5196620e+02 1.73281900e+02 7.54677100e-03 9.28652600e-02
       21 -1    0    0  501  502 +0.0000000000e+00 +0.0000000000e+00 +3.2605370679e+02 3.2605370679e+02 0.0000000000e+00 0.0000e+00 1.0000e+00
       21 -1    0    0  504  503 -0.0000000000e+00 -0.0000000000e+00 -5.7857759509e+02 5.7857759509e+02 0.0000000000e+00 0.0000e+00 1.0000e+00
        6  1    1    2  501    0 +1.3393815142e+01 -1.8395341452e+00 +9.1780395185e+01 1.9630440420e+02 1.7300000000e+02 0.0000e+00 1.0000e+00
       -6  1    1    2    0  505 +3.0467555065e+01 +8.1016421031e+00 +9.5675831282e+01 2.0019184101e+02 1.7300000000e+02 0.0000e+00 -1.0000e+00
       21  1    1    2  504  502 -7.9894473250e+01 +8.6728011106e+01 -1.0254064927e+02 1.5626726951e+02 0.0000000000e+00 0.0000e+00 1.0000e+00
       21  1    1    2  505  503 +3.6033103043e+01 -9.2990119064e+01 -3.3743946550e+02 3.5186778715e+02 0.0000000000e+00 0.0000e+00 1.0000e+00
<mgrwt>
<rscale>  4 0.17328185E+03</rscale>
<asrwt>0</asrwt>
<pdfrwt beam="1">  1       21 0.50162109E-01 0.17328185E+03</pdfrwt>
<pdfrwt beam="2">  1       21 0.89011938E-01 0.17328185E+03</pdfrwt>
<totfact> 0.41458542E+03</totfact>
</mgrwt>
</event>
<event>
 6      1 +2.5196620e+02 3.34484600e+02 7.54677100e-03 1.09711200e-01
       21 -1    0    0  504  502 +0.0000000000e+00 +0.0000000000e+00 +3.0342628466e+02 3.0342628466e+02 0.0000000000e+00 0.0000e+00 -1.0000e+00
       21 -1    0    0  502  503 -0.0000000000e+00 -0.0000000000e+00 -6.6063923275e+02 6.6063923275e+02 0.0000000000e+00 0.0000e+00 1.0000e+00
        6  1    1    2  501    0 +7.6089350019e+01 +3.3994093343e+02 -3.1228539798e+02 4.9879915517e+02 1.7300000000e+02 0.0000e+00 1.0000e+00
       -6  1    1    2    0  503 +1.7769519500e+00 -2.2180784632e+02 -9.1062086341e+01 2.9567411422e+02 1.7300000000e+02 0.0000e+00 1.0000e+00
       21  1    1    2  504  505 -3.7593357980e+01 -7.5709615440e+01 -1.4022343500e+01 8.5684494231e+01 0.0000000000e+00 0.0000e+00 1.0000e+00
       21  1    1    2  505  501 -4.0272943989e+01 -4.2423471668e+01 +6.0156879735e+01 8.3907753785e+01 0.0000000000e+00 0.0000e+00 -1.0000e+00
<mgrwt>
<rscale>  4 0.33448458E+03</rscale>
<asrwt>0</asrwt>
<pdfrwt beam="1">  1       21 0.46680967E-01 0.33448458E+03</pdfrwt>
<pdfrwt beam="2">  1       21 0.10163680E+00 0.33448458E+03</pdfrwt>
<totfact> 0.31662036E+03</totfact>
</mgrwt>
</event>
<event>
 6      1 +2.5196620e+02 2.42422900e+02 7.54677100e-03 1.11396600e-01
       21 -1    0    0  504  502 +0.0000000000e+00 +0.0000000000e+00 +1.3498513968e+03 1.3498513968e+03 0.0000000000e+00 0.0000e+00 1.0000e+00
       21 -1    0    0  502  503 -0.0000000000e+00 -0.0000000000e+00 -4.0603043928e+02 4.0603043928e+02 0.0000000000e+00 0.0000e+00 1.0000e+00
        6  1    1    2  501    0 -5.3589088063e+01 +1.1920875393e+02 +4.7616086636e+02 5.2320233947e+02 1.7300000000e+02 0.0000e+00 1.0000e+00
       -6  1    1    2    0  503 +7.2905922035e+01 -1.5678596866e+02 -3.4032427438e+02 4.1910228485e+02 1.7300000000e+02 0.0000e+00 1.0000e+00
       21  1    1    2  504  505 -1.4456617278e+01 +6.5113611877e+01 +6.0796638051e+02 6.1161417255e+02 0.0000000000e+00 0.0000e+00 1.0000e+00
       21  1    1    2  505  501 -4.8602166941e+00 -2.7536397148e+01 +2.0001798500e+02 2.0196303919e+02 0.0000000000e+00 0.0000e+00 1.0000e+00
<mgrwt>
<rscale>  4 0.24242290E+03</rscale>
<asrwt>0</asrwt>
<pdfrwt beam="1">  1       21 0.20766944E+00 0.24242290E+03</pdfrwt>
<pdfrwt beam="2">  1       21 0.62466222E-01 0.24242290E+03</pdfrwt>
<totfact> 0.26884731E+02</totfact>
</mgrwt>
</event>
<event>
 6      1 +2.5196620e+02 1.88186400e+02 7.54677100e-03 1.13287100e-01
       21 -1    0    0  505  502 +0.0000000000e+00 +0.0000000000e+00 +2.6276389516e+02 2.6276389516e+02 0.0000000000e+00 0.0000e+00 1.0000e+00
       21 -1    0    0  502  503 -0.0000000000e+00 -0.0000000000e+00 -1.8992129546e+03 1.8992129546e+03 0.0000000000e+00 0.0000e+00 -1.0000e+00
        6  1    1    2  501    0 -3.9380487352e+01 +6.5363861400e+01 -1.3805693305e+03 1.3934575463e+03 1.7300000000e+02 0.0000e+00 -1.0000e+00
       -6  1    1    2    0  503 +3.0936693756e+01 -5.1823855743e+01 -1.7440758186e+02 2.5296204390e+02 1.7300000000e+02 0.0000e+00 1.0000e+00
       21  1    1    2  504  501 +1.7985784650e+02 +1.2489705476e+01 -2.2651701193e+02 2.8950784857e+02 0.0000000000e+00 0.0000e+00 1.0000e+00
       21  1    1    2  505  504 -1.7141405291e+02 -2.6029711132e+01 +1.4504486481e+02 2.2604941098e+02 0.0000000000e+00 0.0000e+00 1.0000e+00
<mgrwt>
<rscale>  4 0.18818636E+03</rscale>
<asrwt>0</asrwt>
<pdfrwt beam="1">  1       21 0.40425215E-01 0.18818636E+03</pdfrwt>
<pdfrwt beam="2">  1       21 0.29218660E+00 0.18818636E+03</pdfrwt>
<totfact> 0.22477854E+02</totfact>
</mgrwt>
</event>
<event>
 6      1 +2.5196620e+02 2.13966600e+02 7.54677100e-03 1.09079000e-01
       21 -1    0    0  503  502 +0.0000000000e+00 +0.0000000000e+00 +9.1519016661e+02 9.1519016661e+02 0.0000000000e+00 0.0000e+00 1.0000e+00
       21 -1    0    0  501  503 -0.0000000000e+00 -0.0000000000e+00 -1.4054377524e+03 1.4054377524e+03 0.0000000000e+00 0.0000e+00 1.0000e+00
        6  1    1    2  501    0 +4.3184616719e+01 -1.1759280581e+02 -1.0807655076e+03 1.1016696699e+03 1.7300000000e+02 0.0000e+00 1.0000e+00
       -6  1    1    2    0  504 -1.3712264936e+02 +1.5899338641e+02 -2.2756096947e+02 3.5467522146e+02 1.7300000000e+02 0.0000e+00 1.0000e+00
       21  1    1    2  504  505 -6.5749738656e+00 +2.8124516949e+01 -7.3920771400e+00 2.9813781032e+01 0.0000000000e+00 0.0000e+00 -1.0000e+00
       21  1    1    2  505  502 +1.0051300651e+02 -6.9525097551e+01 +8.2547096849e+02 8.3446924658e+02 0.0000000000e+00 0.0000e+00 1.0000e+00
<mgrwt>
<rscale>  4 0.21396662E+03</rscale>
<asrwt>0</asrwt>
<pdfrwt beam="1">  1       21 0.14079849E+00 0.21396662E+03</pdfrwt>
<pdfrwt beam="2">  1       21 0.21622119E+00 0.21396662E+03</pdfrwt>
<totfact> 0.36194760E+01</totfact>
</mgrwt>
</event>
<event>
 6      1 +2.5196620e+02 2.02346500e+02 7.54677100e-03 9.13207900e-02
       21 -1    0    0  505  502 +0.0000000000e+00 +0.0000000000e+00 +6.8735049520e+02 6.8735049520e+02 0.0000000000e+00 0.0000e+00 -1.0000e+00
       21 -1    0    0  502  503 -0.0000000000e+00 -0.0000000000e+00 -3.0186253667e+02 3.0186253667e+02 0.0000000000e+00 0.0000e+00 -1.0000e+00
        6  1    1    2  501    0 +5.3904700849e+01 +5.1956017848e+01 +6.1010059348e+01 1.9813220815e+02 1.7300000000e+02 0.0000e+00 1.0000e+00
       -6  1    1    2    0  504 +7.0386498294e+00 -1.8305751601e+02 +7.3735008803e+01 2.6253656561e+02 1.7300000000e+02 0.0000e+00 -1.0000e+00
       21  1    1    2  504  503 -5.4818351316e+01 -4.9911471873e+01 -1.0547691922e+02 1.2892473445e+02 0.0000000000e+00 0.0000e+00 -1.0000e+00
       21  1    1    2  505  501 -6.1249993625e+00 +1.8101297004e+02 +3.5621980959e+02 3.9961952366e+02 0.0000000000e+00 0.0000e+00 -1.0000e+00
<mgrwt>
<rscale>  4 0.20234650E+03</rscale>
<asrwt>0</asrwt>
<pdfrwt beam="1">  1       21 0.10574623E+00 0.20234650E+03</pdfrwt>
<pdfrwt beam="2">  1       21 0.46440391E-01 0.20234650E+03</pdfrwt>
<totfact> 0.31637671E+03</totfact>
</mgrwt>
</event>
<event>
 6      1 +2.5196620e+02 2.61830500e+02 7.54677100e-03 1.16128000e-01
       21 -1    0    0  501  502 +0.0000000000e+00 +0.0000000000e+00 +7.6172798692e+02 7.6172798692e+02 0.0000000000e+00 0.0000e+00 -1.0000e+00
       21 -1    0    0  505  503 -0.0000000000e+00 -0.0000000000e+00 -5.3878973844e+02 5.3878973844e+02 0.0000000000e+00 0.0000e+00 -1.0000e+00
        6  1    1    2  501    0 +4.3229761575e+01 -2.1830292981e+02 +6.1162851860e+02 6.7345632836e+02 1.7300000000e+02 0.0000e+00 -1.0000e+00
       -6  1    1    2    0  503 -1.5536102452e+01 +1.1433890328e+02 +1.5156858164e+01 2.0850296313e+02 1.7300000000e+02 0.0000e+00 -1.0000e+00
       21  1    1    2  504  502 -5.5217895048e+00 +6.3994548497e+01 -2.4239842780e+02 2.5076441174e+02 0.0000000000e+00 0.0000e+00 -1.0000e+00
       21  1    1    2  505  504 -2.2171869618e+01 +3.9969478032e+01 -1.6144870048e+02 1.6779402213e+02 0.0000000000e+00 0.0000e+00 1.0000e+00
<mgrwt>
<rscale>  4 0.26183055E+03</rscale>
<asrwt>0</asrwt>
<pdfrwt beam="1">  1       21 0.11718892E+00 0.26183055E+03</pdfrwt>
<pdfrwt beam="2">  1       21 0.82890729E-01 0.26183055E+03</pdfrwt>
<totfact> 0.66622183E+02</totfact>
</mgrwt>
</event>
<event>
 6      1 +2.5196620e+02 1.97818200e+02 7.54677100e-03 1.06301000e-01
       21 -1    0    0  505  502 +0.0000000000e+00 +0.0000000000e+00 +1.2366734237e+03 1.2366734237e+03 0.0000000000e+00 0.0000e+00 1.0000e+00
       21 -1    0    0  504  503 -0.0000000000e+00 -0.0000000000e+00 -1.4104901819e+02 1.4104901819e+02 0.0000000000e+00 0.0000e+00 1.0000e+00
        6  1    1    2  501    0 +1.0393511972e+02 +4.2935203939e-01 +8.5927121559e+01 2.1935168947e+02 1.7300000000e+02 0.0000e+00 1.0000e+00
       -6  1    1    2    0  502 -8.8043324050e+01 -1.2476107024e+02 +4.0052513312e+02 4.6224055839e+02 1.7300000000e+02 0.0000e+00 -1.0000e+00
       21  1    1    2  504  501 -3.5710870466e+01 +2.8572033737e+01 -2.6582634402e+01 5.2898618442e+01 0.0000000000e+00 0.0000e+00 -1.0000e+00
       21  1    1    2  505  503 +1.9819074794e+01 +9.5759684466e+01 +6.3575478522e+02 6.4323157558e+02 0.0000000000e+00 0.0000e+00 1.0000e+00
<mgrwt>
<rscale>  4 0.19781815E+03</rscale>
<asrwt>0</asrwt>
<pdfrwt beam="1">  1       21 0.19025744E+00 0.19781815E+03</pdfrwt>
<pdfrwt beam="2">  1       21 0.21699850E-01 0.19781815E+03</pdfrwt>
<totfact> 0.30622881E+03</totfact>
</mgrwt>
</event>
<event>
 6      1 +2.5196620e+02 1.90638800e+02 7.54677100e-03 1.16321900e-01
       21 -1    0    0  504  502 +0.0000000000e+00 +0.0000000000e+00 +8.5781775202e+02 8.5781775202e+02 0.0000000000e+00 0.0000e+00 -1.0000e+00
       21 -1    0    0  501  503 -0.0000000000e+00 -0.0000000000e+00 -1.3928842070e+02 1.3928842070e+02 0.0000000000e+00 0.0000e+00 -1.0000e+00
        6  1    1    2  501    0 -5.4545570162e+01 -2.4884190275e+01 +5.0927709614e+02 5.4118998771e+02 1.7300000000e+02 0.0000e+00 -1.0000e+00
       -6  1    1    2    0  502 +1.0842176888e+02 +6.3380953757e+01 +2.8339052026e+02 3.5498114350e+02 1.7300000000e+02 0.0000e+00 -1.0000e+00
       21  1    1    2  504  505 -2.9084310160e+01 -2.2332818176e+01 -2.8072528472e+01 4.6181367671e+01 0.0000000000e+00 0.0000e+00 1.0000e+00
       21  1    1    2  505  503 -2.4791888560e+01 -1.6163945306e+01 -4.6065756611e+01 5.4753673835e+01 0.0000000000e+00 0.0000e+00 -1.0000e+00
<mgrwt>
<rscale>  4 0.19063883E+03</rscale>
<asrwt>0</asrwt>
<pdfrwt beam="1">  1       21 0.13197196E+00 0.19063883E+03</pdfrwt>
<pdfrwt beam="2">  1       21 0.21428988E-01 0.19063883E+03</pdfrwt>
<totfact> 0.84530447E+03</totfact>
</mgrwt>
</event>
<event>
 6      1 +2.5196620e+02 1.86508600e+02 7.54677100e-03 1.07655700e-01
       21 -1    0    0  501  502 +0.0000000000e+00 +0.0000000000e+00 +1.0899783885e+03 1.0899783885e+03 0.0000000000e+00 0.0000e+00 -1.0000e+00
       21 -1    0    0  502  503 -0.0000000000e+00 -0.0000000000e+00 -2.1662347633e+03 2.1662347633e+03 0.0000000000e+00 0.0000e+00 -1.0000e+00
        6  1    1    2  501    0 +5.0414508498e+01 -5.3478093562e+01 -6.9162148876e+02 7.1670831785e+02 1.7300000000e+02 0.0000e+00 -1.0000e+00
       -6  1    1    2    0  505 +1.9472071667e+01 +5.8600497940e+01 +8.7051680754e+02 8.8968628861e+02 1.7300000000e+02 0.0000e+00 -1.0000e+00
       21  1    1    2  504  503 +1.0990128967e+01 +1.8818363595e+01 -1.4433861878e+03 1.4435506922e+03 0.0000000000e+00 0.0000e+00 -1.0000e+00
       21  1    1    2  505  504 -8.0876709132e+01 -2.3940767974e+01 +1.8823449422e+02 2.0626785321e+02 0.0000000000e+00 0.0000e+00 -1.0000e+00
<mgrwt>
<rscale>  4 0.18650858E+03</rscale>
<asrwt>0</asrwt>
<pdfrwt beam="1">  1       21 0.16768898E+00 0.18650858E+03</pdfrwt>
<pdfrwt beam="2">  1       21 0.33326689E+00 0.18650858E+03</pdfrwt>
<totfact> 0.49243697E+00</totfact>
</mgrwt>
</event>
<event>
 6      1 +2.5196620e+02 2.96723300e+02 7.54677100e-03 1.15334700e-01
       21 -1    0    0  503  502 +0.0000000000e+00 +0.0000000000e+00 +5.6846825867e+02 5.6846825867e+02 0.0000000000e+00 0.0000e+00 -1.0000e+00
       21 -1    0    0  505  503 -0.0000000000e+00 -0.0000000000e+00 -8.0835934091e+02 8.0835934091e+02 0.0000000000e+00 0.0000e+00 1.0000e+00
        6  1    1    2  501    0 +1.9975151722e+02 -1.1313937391e+02 -6.3427013424e+02 6.9636828600e+02 1.7300000000e+02 0.0000e+00 1.0000e+00
       -6  1    1    2    0  504 -2.0772233930e+02 +7.2595855909e+01 +4.4634160242e+02 5.2684775276e+02 1.7300000000e+02 0.0000e+00 -1.0000e+00
       21  1    1    2  504  502 -1.3913089110e+01 +2.8687373805e+01 +4.4076816469e+01 5.4399496454e+01 0.0000000000e+00 0.0000e+00 -1.0000e+00
       21  1    1    2  505  501 +2.1883911190e+01 +1.1856144198e+01 -9.6039366884e+01 9.9212064366e+01 0.0000000000e+00 0.0000e+00 1.0000e+00
<mgrwt>
<rscale>  4 0.29672330E+03</rscale>
<asrwt>0</asrwt>
<pdfrwt beam="1">  1       21 0.87456655E-01 0.29672330E+03</pdfrwt>
<pdfrwt beam="2">  1       21 0.12436298E+00 0.29672330E+03</pdfrwt>
<totfact> 0.49377677E+02</totfact>
</mgrwt>
</event>
<event>
 6      1 +2.5196620e+02 2.13395500e+02 7.54677100e-03 9.49153200e-02
       21 -1    0    0  505  502 +0.0000000000e+00 +0.0000000000e+00 +4.6802790249e+02 4.6802790249e+02 0.0000000000e+00 0.0000e+00 1.0000e+00
       21 -1    0    0  501  503 -0.0000000000e+00 -0.0000000000e+00 -1.8080966427e+02 1.8080966427e+02 0.0000000000e+00 0.0000e+00 1.0000e+00
        6  1    1    2  501    0 +4.8828259455e+01 -1.4150737280e+02 +1.1621549353e+02 2.5660003198e+02 1.7300000000e+02 0.0000e+00 1.0000e+00
       -6  1    1    2    0  502 +5.0014418791e+01 +1.1037960430e+02 +8.3737718592e+01 2.2721378622e+02 1.7300000000e+02 0.0000e+00 1.0000e+00
       21  1    1    2  504  503 -4.0879601031e+01 +3.8256756764e+00 -1.5529026725e+01 4.3896790838e+01 0.0000000000e+00 0.0000e+00 -1.0000e+00
       21  1    1    2  505  504 -5.7963077214e+01 +2.7302092817e+01 +1.0279405282e+02 1.2112695772e+02 0.0000000000e+00 0.0000e+00 1.0000e+00
<mgrwt>
<rscale>  4 0.21339548E+03</rscale>
<asrwt>0</asrwt>
<pdfrwt beam="1">  1       21 0.72004293E-01 0.21339548E+03</pdfrwt>
<pdfrwt beam="2">  1       21 0.27816871E-01 0.21339548E+03</pdfrwt>
<totfact> 0.21219559E+04</totfact>
</mgrwt>
</event>
<event>
 6      1 +2.5196620e+02 1.92476000e+02 7.54677100e-03 9.49153200e-02
       21 -1    0    0  505  502 +0.0000000000e+00 +0.0000000000e+00 +5.8673956059e+02 5.8673956059e+02 0.0000000000e+00 0.0000e+00 1.0000e+00
       21 -1    0    0  501  503 -0.0000000000e+00 -0.0000000000e+00 -2.2087155697e+02 2.2087155697e+02 0.0000000000e+00 0.0000e+00 -1.0000e+00
        6  1    1    2  501    0 +5.5324483078e+01 -4.0847608996e+01 -8.5757590620e+01 2.0496997326e+02 1.7300000000e+02 0.0000e+00 -1.0000e+00
       -6  1    1    2    0  502 -1.1085882089e+02 +2.4961888339e+01 +1.1611206722e+02 2.3732632848e+02 1.7300000000e+02 0.0000e+00 -1.0000e+00
       21  1    1    2  504  503 +2.0154628855e+01 +2.1752303955e+01 +1.8310507018e+00 2.9710680543e+01 0.0000000000e+00 0.0000e+00 -1.0000e+00
       21  1    1    2  505  504 +3.5379708954e+01 -5.8665832979e+00 +3.3368247633e+02 3.3560413527e+02 0.0000000000e+00 0.0000e+00 1.0000e+00
<mgrwt>
<rscale>  4 0.19247595E+03</rscale>
<asrwt>0</asrwt>
<pdfrwt beam="1">  1       21 0.90267624E-01 0.19247595E+03</pdfrwt>
<pdfrwt beam="2">  1       21 0.33980240E-01 0.19247595E+03</pdfrwt>
<totfact> 0.87078288E+03</totfact>
</mgrwt>
</event>
<event>
 6      1 +2.5196620e+02 2.15088900e+02 7.54677100e-03 1.06301000e-01
       21 -1    0    0  501  502 +0.0000000000e+00 +0.0000000000e+00 +1.5182700625e+03 1.5182700625e+03 0.0000000000e+00 0.0000e+00 -1.0000e+00
       21 -1    0    0  504  503 -0.0000000000e+00 -0.0000000000e+00 -1.6697961259e+02 1.6697961259e+02 0.0000000000e+00 0.0000e+00 -1.0000e+00
        6  1    1    2  501    0 +9.6296870753e+01 -9.7673338906e+01 +1.0601408942e+02 2.4491050530e+02 1.7300000000e+02 0.0000e+00 -1.0000e+00
       -6  1    1    2    0  503 -1.5913560530e+02 -7.1195069433e+01 +1.1353773080e+02 2.7057844538e+02 1.7300000000e+02 0.0000e+00 1.0000e+00
       21  1    1    2  504  505 +1.4931697116e+01 -1.5415774875e+01 -6.5361947742e-01 2.1471583830e+01 0.0000000000e+00 0.0000e+00 -1.0000e+00
       21  1    1    2  505  502 +4.7907037433e+01 +1.8428418321e+02 +1.1323922492e+03 1.1482891406e+03 0.0000000000e+00 0.0000e+00 -1.0000e+00
<mgrwt>
<rscale>  4 0.21508890E+03</rscale>
<asrwt>0</asrwt>
<pdfrwt beam="1">  1       21 0.23358000E+00 0.21508890E+03</pdfrwt>
<pdfrwt beam="2">  1       21 0.25689172E-01 0.21508890E+03</pdfrwt>
<totfact> 0.11667206E+03</totfact>
</mgrwt>
</event>
<event>
 6      1 +2.5196620e+02 1.80429100e+02 7.54677100e-03 1.14954000e-01
       21 -1    0    0  505  502 +0.0000000000e+00 +0.0000000000e+00 +9.0176980939e+02 9.0176980939e+02 0.0000000000e+00 0.0000e+00 -1.0000e+00
       21 -1    0    0  502  503 -0.0000000000e+00 -0.0000000000e+00 -1.9594131744e+02 1.9594131744e+02 0.0000000000e+00 0.0000e+00 -1.0000e+00
        6  1    1    2  501    0 -1.0913385564e+01 +9.2568677117e+01 +2.7496697871e+02 3.3797026696e+02 1.7300000000e+02 0.0000e+00 -1.0000e+00
       -6  1    1    2    0  503 -3.0289594548e+01 -3.7202527762e+01 -1.0954062003e+02 2.1030842838e+02 1.7300000000e+02 0.0000e+00 -1.0000e+00
       21  1    1    2  504  501 +5.1373493834e+00 -2.0119678967e+01 +2.9658318610e+01 3.6205106037e+01 0.0000000000e+00 0.0000e+00 -1.0000e+00
       21  1    1    2  505  504 +3.6065630728e+01 -3.5246470388e+01 +5.1074381465e+02 5.1322732546e+02 0.0000000000e+00 0.0000e+00 -1.0000e+00
<mgrwt>
<rscale>  4 0.18042909E+03</rscale>
<asrwt>0</asrwt>
<pdfrwt beam="1">  1       21 0.13873381E+00 0.18042909E+03</pdfrwt>
<pdfrwt beam="2">  1       21 0.30144819E-01 0.18042909E+03</pdfrwt>
<totfact> 0.39087758E+03</totfact>
</mgrwt>
</event>
<event>
 6      1 +2.5196620e+02 1.79261600e+02 7.54677100e-03 1.14954000e-01
       21 -1    0    0  501  502 +0.0000000000e+00 +0.0000000000e+00 +5.3119009319e+02 5.3119009319e+02 0.0000000000e+00 0.0000e+00 -1.0000e+00
       21 -1    0    0  505  503 -0.0000000000e+00 -0.0000000000e+00 -1.4771628335e+02 1.4771628335e+02 0.0000000000e+00 0.0000e+00 -1.0000e+00
        6  1    1    2  501    0 +1.1397220457e+01 -3.2019528298e+01 +1.9772075744e+02 2.6491063540e+02 1.7300000000e+02 0.0000e+00 -1.0000e+00
       -6  1    1    2    0  503 -2.5020993415e+01 -7.0065645289e+01 -1.2249494115e+01 1.8871750016e+02 1.7300000000e+02 0.0000e+00 -1.0000e+00
       21  1    1    2  504  502 -8.8159502752e+00 +1.9702494177e+01 +3.1924021865e+01 3.8536377983e+01 0.0000000000e+00 0.0000e+00 -1.0000e+00
       21  1    1    2  505  504 +2.2439723233e+01 +8.2382679410e+01 +1.6607852465e+02 1.8674186300e+02 0.0000000000e+00 0.0000e+00 -1.0000e+00
<mgrwt>
<rscale>  4 0.17926158E+03</rscale>
<asrwt>0</asrwt>
<pdfrwt beam="1">  1       21 0.81721552E-01 0.17926158E+03</pdfrwt>
<pdfrwt beam="2">  1       21 0.22725582E-01 0.17926158E+03</pdfrwt>
<totfact> 0.23982081E+04</totfact>
</mgrwt>
</event>
<event>
 6      1 +2.5196620e+02 1.88318900e+02 7.54677100e-03 9.49153200e-02
       21 -1    0    0  505  502 +0.0000000000e+00 +0.0000000000e+00 +4.4498747786e+02 4.4498747786e+02 0.0000000000e+00 0.0000e+00 1.0000e+00
       21 -1    0    0  501  503 -0.0000000000e+00 -0.0000000000e+00 -1.3071380854e+03 1.3071380854e+03 0.0000000000e+00 0.0000e+00 1.0000e+00
        6  1    1    2  501    0 -7.9410158469e+00 -6.5024956549e+01 -7.3450429910e+02 7.5744100107e+02 1.7300000000e+02 0.0000e+00 1.0000e+00
       -6  1    1    2    0  502 +3.1952863935e+01 +8.3859149615e+01 -5.1017391948e+02 5.4613164219e+02 1.7300000000e+02 0.0000e+00 -1.0000e+00
       21  1    1    2  504  503 -2.2708681422e+01 +1.7281368912e+00 -2.8796065425e+01 3.6713540458e+01 0.0000000000e+00 0.0000e+00 1.0000e+00
       21  1    1    2  505  504 -1.3031666660e+00 -2.0562329957e+01 +4.1132367650e+02 4.1183937950e+02 0.0000000000e+00 0.0000e+00 1.0000e+00
<mgrwt>
<rscale>  4 0.18831889E+03</rscale>
<asrwt>0</asrwt>
<pdfrwt beam="1">  1       21 0.68459612E-01 0.18831889E+03</pdfrwt>
<pdfrwt beam="2">  1       21 0.20109817E+00 0.18831889E+03</pdfrwt>
<totfact> 0.25856489E+02</totfact>
</mgrwt>
</event>
<event>
 6      1 +2.5196620e+02 2.29813800e+02 7.54677100e-03 1.09711200e-01
       21 -1    0    0  504  502 +0.0000000000e+00 +0.0000000000e+00 +1.6240977576e+02 1.6240977576e+02 0.0000000000e+00 0.0000e+00 -1.0000e+00
       21 -1    0    0  505  503 -0.0000000000e+00 -0.0000000000e+00 -6.0470135992e+02 6.0470135992e+02 0.0000000000e+00 0.0000e+00 -1.0000e+00
        6  1    1    2  501    0 -1.2981218981e+02 -1.1086059358e+02 -1.2642981513e+02 2.7396126366e+02 1.7300000000e+02 0.0000e+00 -1.0000e+00
       -6  1    1    2    0  503 +1.2632768407e+02 +6.7238726212e+01 -3.1692033560e+02 3.8839056269e+02 1.7300000000e+02 0.0000e+00 -1.0000e+00
       21  1    1    2  504  501 -4.0909326548e+01 -1.7464309903e+00 +4.4866086092e+00 4.1191657852e+01 0.0000000000e+00 0.0000e+00 1.0000e+00
       21  1    1    2  505  502 +4.4393832291e+01 +4.5368298360e+01 -3.4280420334e+00 6.3567651472e+01 0.0000000000e+00 0.0000e+00 -1.0000e+00
<mgrwt>
<rscale>  4 0.22981380E+03</rscale>
<asrwt>0</asrwt>
<pdfrwt beam="1">  1       21 0.24986119E-01 0.22981380E+03</pdfrwt>
<pdfrwt beam="2">  1       21 0.93030979E-01 0.22981380E+03</pdfrwt>
<totfact> 0.14412923E+04</totfact>
</mgrwt>
</event>
<event>
 6      1 +2.5196620e+02 1.79829400e+02 7.54677100e-03 1.06301000e-01
       21 -1    0    0  501  502 +0.0000000000e+00 +0.0000000000e+00 +2.6117211102e+02 2.6117211102e+02 0.0000000000e+00 0.0000e+00 1.0000e+00
       21 -1    0    0  504  503 -0.0000000000e+00 -0.0000000000e+00 -4.1300352252e+02 4.1300352252e+02 0.0000000000e+00 0.0000e+00 1.0000e+00
        6  1    1    2  501    0 +1.1777569636e+01 +6.8013981846e+01 +1.8014146456e+01 1.8713129708e+02 1.7300000000e+02 0.0000e+00 1.0000e+00
       -6  1    1    2    0  503 +2.3820003430e+01 -2.1245460449e+01 -1.8906917935e+02 2.5825358997e+02 1.7300000000e+02 0.0000e+00 1.0000e+00
       21  1    1    2  504  505 +1.9236141262e+01 -2.1644227588e+01 -9.5165745277e+01 9.9473719105e+01 0.0000000000e+00 0.0000e+00 1.0000e+00
       21  1    1    2  505  502 -5.4833714327e+01 -2.5124293809e+01 +1.1438936667e+02 1.2931702739e+02 0.0000000000e+00 0.0000e+00 1.0000e+00
<mgrwt>
<rscale>  4 0.17982939E+03</rscale>
<asrwt>0</asrwt>
<pdfrwt beam="1">  1       21 0.40180325E-01 0.17982939E+03</pdfrwt>
<pdfrwt beam="2">  1       21 0.63539003E-01 0.17982939E+03</pdfrwt>
<totfact> 0.13782342E+04</totfact>
</mgrwt>
</event>
<event>
 6      1 +2.5196620e+02 1.76011700e+02 7.54677100e-03 1.16321900e-01
       21 -1    0    0  504  502 +0.0000000000e+00 +0.0000000000e+00 +1.4385955889e+02 1.4385955889e+02 0.0000000000e+00 0.0000e+00 -1.0000e+00
       21 -1    0    0  505  503 -0.0000000000e+00 -0.0000000000e+00 -7.9834937415e+02 7.9834937415e+02 0.0000000000e+00 0.0000e+00 -1.0000e+00
        6  1    1    2  501    0 -6.9664182501e+01 -2.4985341570e+01 -2.1217922861e+01 1.8935830023e+02 1.7300000000e+02 0.0000e+00 -1.0000e+00
       -6  1    1    2    0  502 -4.0350011471e+01 -3.3048486697e+01 -1.6202645102e+02 2.4269712963e+02 1.7300000000e+02 0.0000e+00 1.0000e+00
       21  1    1    2  504  503 +1.4188146499e+02 +7.2912420606e+01 -4.0187360588e+02 4.3237595480e+02 0.0000000000e+00 0.0000e+00 -1.0000e+00
       21  1    1    2  505  501 -3.1867271023e+01 -1.4878592339e+01 -6.9371835494e+01 7.7777548381e+01 0.0000000000e+00 0.0000e+00 -1.0000e+00
<mgrwt>
<rscale>  4 0.17601173E+03</rscale>
<asrwt>0</asrwt>
<pdfrwt beam="1">  1       21 0.22132240E-01 0.17601173E+03</pdfrwt>
<pdfrwt beam="2">  1       21 0.12282298E+00 0.17601173E+03</pdfrwt>
<totfact> 0.96316715E+03</totfact>
</mgrwt>
</event>
<event>
 6      1 +2.5196620e+02 1.77612700e+02 7.54677100e-03 1.15334700e-01
       21 -1    0    0  501  502 +0.0000000000e+00 +0.0000000000e+00 +3.9287043697e+02 3.9287043697e+02 0.0000000000e+00 0.0000e+00 -1.0000e+00
       21 -1    0    0  502  503 -0.0000000000e+00 -0.0000000000e+00 -3.5956192728e+02 3.5956192728e+02 0.0000000000e+00 0.0000e+00 1.0000e+00
        6  1    1    2  501    0 -5.1468795669e+00 -7.5835110928e+01 +1.0016891380e+02 2.1386974006e+02 1.7300000000e+02 0.0000e+00 1.0000e+00
       -6  1    1    2    0  504 +2.0568767773e+01 +1.4285958924e+01 +1.8920839870e+02 2.5759654689e+02 1.7300000000e+02 0.0000e+00 -1.0000e+00
       21  1    1    2  504  505 +1.2534072171e+01 +3.5271546866e+01 -2.1270420358e+01 4.3053638240e+01 0.0000000000e+00 0.0000e+00 1.0000e+00
       21  1    1    2  505  503 -2.7955960377e+01 +2.6277605138e+01 -2.3479838247e+02 2.3791243906e+02 0.0000000000e+00 0.0000e+00 1.0000e+00
<mgrwt>
<rscale>  4 0.17761273E+03</rscale>
<asrwt>0</asrwt>
<pdfrwt beam="1">  1       21 0.60441606E-01 0.17761273E+03</pdfrwt>
<pdfrwt beam="2">  1       21 0.55317219E-01 0.17761273E+03</pdfrwt>
<totfact> 0.79465766E+03</totfact>
</mgrwt>
</event>
<event>
 6      1 +2.5196620e+02 1.74609100e+02 7.54677100e-03 1.09711200e-01
       21 -1    0    0  504  502 +0.0000000000e+00 +0.0000000000e+00 +2.2780766481e+02 2.2780766481e+02 0.0000000000e+00 0.0000e+00 1.0000e+00
       21 -1    0    0  505  503 -0.0000000000e+00 -0.0000000000e+00 -6.3581061485e+02 6.3581061485e+02 0.0000000000e+00 0.0000e+00 1.0000e+00
        6  1    1    2  501    0 +5.7608825659e+01 +4.9169436740e+01 -4.1449623236e+01 1.9334808396e+02 1.7300000000e+02 0.0000e+00 1.0000e+00
       -6  1    1    2    0  503 +2.5089857809e+00 -1.7251268495e+01 -4.9291556804e+02 5.2268409053e+02 1.7300000000e+02 0.0000e+00 1.0000e+00
       21  1    1    2  504  501 -2.1890409777e+01 -7.7489044359e+00 +7.7947705878e+01 8.1333144608e+01 0.0000000000e+00 0.0000e+00 1.0000e+00
       21  1    1    2  505  502 -3.8227401662e+01 -2.4169263809e+01 +4.8414535358e+01 6.6252960574e+01 0.0000000000e+00 0.0000e+00 1.0000e+00
<mgrwt>
<rscale>  4 0.17460906E+03</rscale>
<asrwt>0</asrwt>
<pdfrwt beam="1">  1       21 0.35047333E-01 0.17460906E+03</pdfrwt>
<pdfrwt beam="2">  1       21 0.97817018E-01 0.17460906E+03</pdfrwt>
<totfact> 0.68830768E+03</totfact>
</mgrwt>
</event>
<event>
 6      1 +2.5196620e+02 1.89452900e+02 7.54677100e-03 9.49153200e-02
       21 -1    0    0  504  502 +0.0000000000e+00 +0.0000000000e+00 +8.0583211957e+02 8.0583211957e+02 0.0000000000e+00 0.0000e+00 1.0000e+00
       21 -1    0    0  501  503 -0.0000000000e+00 -0.0000000000e+00 -2.4989650141e+02 2.4989650141e+02 0.0000000000e+00 0.0000e+00 -1.0000e+00
        6  1    1    2  501    0 -8.1083011670e+01 -1.5732296240e+01 -1.1882897162e+01 1.9207332759e+02 1.7300000000e+02 0.0000e+00 -1.0000e+00
       -6  1    1    2    0  505 +6.2995323977e+01 -4.9763846356e+01 +4.4537202090e+02 4.8448951304e+02 1.7300000000e+02 0.0000e+00 1.0000e+00
       21  1    1    2  504  503 +3.2731213891e+01 +8.6721206429e+01 -1.1082200249e+02 1.4447635185e+02 0.0000000000e+00 0.0000e+00 -1.0000e+00
       21  1    1    2  505  502 -1.4643526199e+01 -2.1225063833e+01 +2.3326849692e+02 2.3468942850e+02 0.0000000000e+00 0.0000e+00 1.0000e+00
<mgrwt>
<rscale>  4 0.18945294E+03</rscale>
<asrwt>0</asrwt>
<pdfrwt beam="1">  1       21 0.12397417E+00 0.18945294E+03</pdfrwt>
<pdfrwt beam="2">  1       21 0.38445616E-01 0.18945294E+03</pdfrwt>
<totfact> 0.31859349E+03</totfact>
</mgrwt>
</event>
<event>
 6      1 +2.5196620e+02 2.99045400e+02 7.54677100e-03 1.09079000e-01
       21 -1    0    0  505  502 +0.0000000000e+00 +0.0000000000e+00 +1.3806311921e+03 1.3806311921e+03 0.0000000000e+00 0.0000e+00 -1.0000e+00
       21 -1    0    0  501  503 -0.0000000000e+00 -0.0000000000e+00 -6.5307883199e+02 6.5307883199e+02 0.0000000000e+00 0.0000e+00 1.0000e+00
        6  1    1    2  501    0 -5.8267028966e+01 -2.4401099657e+02 -4.7264820586e+02 5.6237153165e+02 1.7300000000e+02 0.0000e+00 1.0000e+00
       -6  1    1    2    0  504 +8.1549146200e+01 +2.0527440271e+02 +3.8134188113e+01 2.8314494514e+02 1.7300000000e+02 0.0000e+00 -1.0000e+00
       21  1    1    2  504  502 +3.1088267987e+01 +2.5613678608e+01 +2.0389153461e+01 4.5147076507e+01 0.0000000000e+00 0.0000e+00 1.0000e+00
       21  1    1    2  505  503 -5.4370385221e+01 +1.3122915247e+01 +1.1416772244e+03 1.1430464708e+03 0.0000000000e+00 0.0000e+00 -1.0000e+00
<mgrwt>
<rscale>  4 0.29904543E+03</rscale>
<asrwt>0</asrwt>
<pdfrwt beam="1">  1       21 0.21240480E+00 0.29904543E+03</pdfrwt>
<pdfrwt beam="2">  1       21 0.10047367E+00 0.29904543E+03</pdfrwt>
<totfact> 0.80227131E+01</totfact>
</mgrwt>
</event>
<event>
 6      1 +2.5196620e+02 1.86469800e+02 7.54677100e-03 1.14954000e-01
       21 -1    0    0  501  502 +0.0000000000e+00 +0.0000000000e+00 +3.3183767381e+02 3.3183767381e+02 0.0000000000e+00 0.0000e+00 1.0000e+00
       21 -1    0    0  505  503 -0.0000000000e+00 -0.0000000000e+00 -2.3774648418e+02 2.3774648418e+02 0.0000000000e+00 0.0000e+00 1.0000e+00
        6  1    1    2  501    0 -1.4702941094e+02 +6.1454414638e+01 +6.1018407063e+01 2.4299493567e+02 1.7300000000e+02 0.0000e+00 -1.0000e+00
       -6  1    1    2    0  503 +1.2478572995e+01 -1.2524041058e+01 +5.6143150457e+00 1.7399162888e+02 1.7300000000e+02 0.0000e+00 -1.0000e+00
       21  1    1    2  504  502 +9.1866240000e+01 -3.3484939159e+01 +3.9781623864e+01 1.0556147403e+02 0.0000000000e+00 0.0000e+00 1.0000e+00
       21  1    1    2  505  504 +4.2684597946e+01 -1.5445434421e+01 -1.2323156344e+01 4.7036119404e+01 0.0000000000e+00 0.0000e+00 1.0000e+00
<mgrwt>
<rscale>  4 0.18646975E+03</rscale>
<asrwt>0</asrwt>
<pdfrwt beam="1">  1       21 0.51051950E-01 0.18646975E+03</pdfrwt>
<pdfrwt beam="2">  1       21 0.36576382E-01 0.18646975E+03</pdfrwt>
<totfact> 0.26389947E+04</totfact>
</mgrwt>
</event>
<event>
 6      1 +2.5196620e+02 1.76201400e+02 7.54677100e-03 9.49153200e-02
       21 -1    0    0  505  502 +0.0000000000e+00 +0.0000000000e+00 +1.6213244088e+02 1.6213244088e+02 0.0000000000e+00 0.0000e+00 1.0000e+00
       21 -1    0    0  501  503 -0.0000000000e+00 -0.0000000000e+00 -1.4090434333e+03 1.4090434333e+03 0.0000000000e+00 0.0000e+00 1.0000e+00
        6  1    1    2  501    0 -2.0639581206e+01 +3.8808344826e+00 -7.3706100871e+01 1.8921586216e+02 1.7300000000e+02 0.0000e+00 1.0000e+00
       -6  1    1    2    0  502 +1.2533213674e+01 +5.1266454828e+00 -3.8087599702e+02 4.1854377196e+02 1.7300000000e+02 0.0000e+00 -1.0000e+00
       21  1    1    2  504  503 +1.6476444919e+01 -5.7921537071e+01 -8.6954548002e+02 8.7162820027e+02 0.0000000000e+00 0.0000e+00 1.0000e+00
       21  1    1    2  505  504 -8.3700773870e+00 +4.8914057106e+01 +7.7216585475e+01 9.1788039800e+01 0.0000000000e+00 0.0000e+00 1.0000e+00
<mgrwt>
<rscale>  4 0.17620145E+03</rscale>
<asrwt>0</asrwt>
<pdfrwt beam="1">  1       21 0.24943454E-01 0.17620145E+03</pdfrwt>
<pdfrwt beam="2">  1       21 0.21677590E+00 0.17620145E+03</pdfrwt>
<totfact> 0.16323558E+03</totfact>
</mgrwt>
</event>
<event>
 6      1 +2.5196620e+02 2.31546400e+02 7.54677100e-03 9.49153200e-02
       21 -1    0    0  505  502 +0.0000000000e+00 +0.0000000000e+00 +4.5406385104e+02 4.5406385104e+02 0.0000000000e+00 0.0000e+00 -1.0000e+00
       21 -1    0    0  501  503 -0.0000000000e+00 -0.0000000000e+00 -1.1046998566e+03 1.1046998566e+03 0.0000000000e+00 0.0000e+00 -1.0000e+00
        6  1    1    2  501    0 +8.5977160409e+01 -1.8120565889e+02 +2.4169349217e+02 3.5856980783e+02 1.7300000000e+02 0.0000e+00 -1.0000e+00
       -6  1    1    2    0  502 -7.1997556877e+01 +9.0455365379e+01 -2.8240910381e+02 3.5078443984e+02 1.7300000000e+02 0.0000e+00 -1.0000e+00
       21  1    1    2  504  503 -3.2373072601e+01 +2.5653830630e+01 -7.1947167878e+02 7.2065638929e+02 0.0000000000e+00 0.0000e+00 -1.0000e+00
       21  1    1    2  505  504 +1.8393469070e+01 +6.5096462881e+01 +1.0955128488e+02 1.2875307065e+02 0.0000000000e+00 0.0000e+00 -1.0000e+00
<mgrwt>
<rscale>  4 0.23154639E+03</rscale>
<asrwt>0</asrwt>
<pdfrwt beam="1">  1       21 0.69855978E-01 0.23154639E+03</pdfrwt>
<pdfrwt beam="2">  1       21 0.16995382E+00 0.23154639E+03</pdfrwt>
<totfact> 0.38055353E+02</totfact>
</mgrwt>
</event>
<event>
 6      1 +2.5196620e+02 2.97479200e+02 7.54677100e-03 1.04211500e-01
       21 -1    0    0  505  502 +0.0000000000e+00 +0.0000000000e+00 +1.0092933044e+03 1.0092933044e+03 0.0000000000e+00 0.0000e+00 -1.0000e+00
       21 -1    0    0  501  503 -0.0000000000e+00 -0.0000000000e+00 -5.5565696953e+02 5.5565696953e+02 0.0000000000e+00 0.0000e+00 -1.0000e+00
        6  1    1    2  501    0 +1.7328804611e+01 -4.1598615281e+01 -4.5581327049e+02 4.8961767719e+02 1.7300000000e+02 0.0000e+00 -1.0000e+00
       -6  1    1    2    0  502 +2.2908360800e+02 +7.0539159434e+01 +6.4634963714e+02 7.1074040683e+02 1.7300000000e+02 0.0000e+00 -1.0000e+00
       21  1    1    2  504  503 -2.2050865355e+02 -3.7772869635e+01 +2.4501834543e+02 3.3179036389e+02 0.0000000000e+00 0.0000e+00 -1.0000e+00
       21  1    1    2  505  504 -2.5903759064e+01 +8.8323254827e+00 +1.8081622773e+01 3.2801826004e+01 0.0000000000e+00 0.0000e+00 1.0000e+00
<mgrwt>
<rscale>  4 0.26191952E+03</rscale>
<asrwt>0</asrwt>
<pdfrwt beam="1">  1       21 0.15527589E+00 0.29747922E+03</pdfrwt>
<pdfrwt beam="2">  1       21 0.85485688E-01 0.29747922E+03</pdfrwt>
<totfact> 0.29115532E+02</totfact>
</mgrwt>
</event>
<event>
 6      1 +2.5196620e+02 1.92480900e+02 7.54677100e-03 1.16321900e-01
       21 -1    0    0  503  502 +0.0000000000e+00 +0.0000000000e+00 +1.4868169638e+02 1.4868169638e+02 0.0000000000e+00 0.0000e+00 -1.0000e+00
       21 -1    0    0  505  503 -0.0000000000e+00 -0.0000000000e+00 -8.7247268410e+02 8.7247268410e+02 0.0000000000e+00 0.0000e+00 -1.0000e+00
        6  1    1    2  501    0 -4.7199879531e+01 -3.3137166696e+01 -2.4570772354e+02 3.0598559746e+02 1.7300000000e+02 0.0000e+00 1.0000e+00
       -6  1    1    2    0  502 +2.6188068806e+00 -1.3194050380e+02 -1.5220630054e+01 2.1811882604e+02 1.7300000000e+02 0.0000e+00 -1.0000e+00
       21  1    1    2  504  501 +5.6753902512e+01 +1.4668430775e+02 -3.7909113596e+02 4.1042341667e+02 0.0000000000e+00 0.0000e+00 -1.0000e+00
       21  1    1    2  505  504 -1.2172829861e+01 +1.8393362750e+01 -8.3771498173e+01 8.6626540311e+01 0.0000000000e+00 0.0000e+00 1.0000e+00
<mgrwt>
<rscale>  4 0.19248087E+03</rscale>
<asrwt>0</asrwt>
<pdfrwt beam="1">  1       21 0.22874108E-01 0.19248087E+03</pdfrwt>
<pdfrwt beam="2">  1       21 0.13422656E+00 0.19248087E+03</pdfrwt>
<totfact> 0.71500432E+03</totfact>
</mgrwt>
</event>
<event>
 6      1 +2.5196620e+02 1.98675000e+02 7.54677100e-03 1.16726300e-01
       21 -1    0    0  504  502 +0.0000000000e+00 +0.0000000000e+00 +7.2114951168e+02 7.2114951168e+02 0.0000000000e+00 0.0000e+00 -1.0000e+00
       21 -1    0    0  505  503 -0.0000000000e+00 -0.0000000000e+00 -1.0328377129e+03 1.0328377129e+03 0.0000000000e+00 0.0000e+00 1.0000e+00
        6  1    1    2  501    0 +4.1966180811e+01 -6.2214556549e+01 +5.9396896637e+02 6.2318532107e+02 1.7300000000e+02 0.0000e+00 -1.0000e+00
       -6  1    1    2    0  503 -3.1703744173e+01 +8.1676338736e+01 -1.9476422505e+02 2.7484223668e+02 1.7300000000e+02 0.0000e+00 -1.0000e+00
       21  1    1    2  504  501 -3.0532513574e+01 -3.8496668169e+01 +6.3934162348e+01 8.0633770595e+01 0.0000000000e+00 0.0000e+00 1.0000e+00
       21  1    1    2  505  502 +2.0270076936e+01 +1.9034885982e+01 -7.7482710491e+02 7.7532589625e+02 0.0000000000e+00 0.0000e+00 1.0000e+00
<mgrwt>
<rscale>  4 0.19867500E+03</rscale>
<asrwt>0</asrwt>
<pdfrwt beam="1">  1       21 0.11094608E+00 0.19867500E+03</pdfrwt>
<pdfrwt beam="2">  1       21 0.15889811E+00 0.19867500E+03</pdfrwt>
<totfact> 0.16274915E+02</totfact>
</mgrwt>
</event>
<event>
 6      1 +2.5196620e+02 2.05126500e+02 7.54677100e-03 1.09079000e-01
       21 -1    0    0  503  502 +0.0000000000e+00 +0.0000000000e+00 +2.9983195806e+02 2.9983195806e+02 0.0000000000e+00 0.0000e+00 -1.0000e+00
       21 -1    0    0  501  503 -0.0000000000e+00 -0.0000000000e+00 -4.0036186066e+02 4.0036186066e+02 0.0000000000e+00 0.0000e+00 -1.0000e+00
        6  1    1    2  501    0 +1.0305803651e+02 +4.0037261374e+01 -2.8923791861e+02 3.5469918910e+02 1.7300000000e+02 0.0000e+00 -1.0000e+00
       -6  1    1    2    0  504 -1.0029920474e+02 -4.1313055871e+01 +1.0511156877e+02 2.2966092603e+02 1.7300000000e+02 0.0000e+00 -1.0000e+00
       21  1    1    2  504  505 -4.8339427208e+00 +2.1852621706e+01 -6.5704610539e+00 2.3325416097e+01 0.0000000000e+00 0.0000e+00 -1.0000e+00
       21  1    1    2  505  502 +2.0751109469e+00 -2.0576827210e+01 +9.0166908295e+01 9.2508287493e+01 0.0000000000e+00 0.0000e+00 -1.0000e+00
<mgrwt>
<rscale>  4 0.20512653E+03</rscale>
<asrwt>0</asrwt>
<pdfrwt beam="1">  1       21 0.46127994E-01 0.20512653E+03</pdfrwt>
<pdfrwt beam="2">  1       21 0.61594132E-01 0.20512653E+03</pdfrwt>
<totfact> 0.10936301E+04</totfact>
</mgrwt>
</event>
<event>
 6      1 +2.5196620e+02 2.69550300e+02 7.54677100e-03 1.07655700e-01
       21 -1    0    0  501  502 +0.0000000000e+00 +0.0000000000e+00 +8.8499876807e+02 8.8499876807e+02 0.0000000000e+00 0.0000e+00 -1.0000e+00
       21 -1    0    0  504  503 -0.0000000000e+00 -0.0000000000e+00 -2.0945838159e+03 2.0945838159e+03 0.0000000000e+00 0.0000e+00 1.0000e+00
        6  1    1    2  501    0 -8.4583076891e+01 +2.2099058592e+02 +3.1522344447e+02 4.3044855198e+02 1.7300000000e+02 0.0000e+00 -1.0000e+00
       -6  1    1    2    0  505 +7.8178160504e+01 -1.6223402112e+02 +3.6094175684e+02 4.3890734127e+02 1.7300000000e+02 0.0000e+00 -1.0000e+00
       21  1    1    2  504  502 +1.3380520207e+01 -2.9018860800e+01 -1.9957800487e+03 1.9960358553e+03 0.0000000000e+00 0.0000e+00 1.0000e+00
       21  1    1    2  505  503 -6.9756038204e+00 -2.9737704002e+01 +1.1002979963e+02 1.1419083542e+02 0.0000000000e+00 0.0000e+00 1.0000e+00
<mgrwt>
<rscale>  4 0.26955025E+03</rscale>
<asrwt>0</asrwt>
<pdfrwt beam="1">  1       21 0.13615366E+00 0.26955025E+03</pdfrwt>
<pdfrwt beam="2">  1       21 0.32224366E+00 0.26955025E+03</pdfrwt>
<totfact> 0.85577178E+00</totfact>
</mgrwt>
</event>
<event>
 6      1 +2.5196620e+02 2.38633700e+02 7.54677100e-03 9.49153200e-02
       21 -1    0    0  505  502 +0.0000000000e+00 +0.0000000000e+00 +4.1335732962e+02 4.1335732962e+02 0.0000000000e+00 0.0000e+00 1.0000e+00
       21 -1    0    0  501  503 -0.0000000000e+00 -0.0000000000e+00 -5.2932821182e+02 5.2932821182e+02 0.0000000000e+00 0.0000e+00 1.0000e+00
        6  1    1    2  501    0 +1.2771674728e+02 +2.1012203360e+02 -2.1526508981e+02 3.6977140970e+02 1.7300000000e+02 0.0000e+00 1.0000e+00
       -6  1    1    2    0  502 -7.8533151548e+01 -1.1190476766e+02 +1.4085796596e+02 2.6164880946e+02 1.7300000000e+02 0.0000e+00 1.0000e+00
       21  1    1    2  504  503 -1.6883535861e+02 -4.4563999879e+01 -4.4137458230e+01 1.8010953229e+02 0.0000000000e+00 0.0000e+00 1.0000e+00
       21  1    1    2  505  504 +1.1965176287e+02 -5.3653266062e+01 +2.5736998838e+00 1.3115579000e+02 0.0000000000e+00 0.0000e+00 1.0000e+00
<mgrwt>
<rscale>  4 0.23863373E+03</rscale>
<asrwt>0</asrwt>
<pdfrwt beam="1">  1       21 0.63593435E-01 0.23863373E+03</pdfrwt>
<pdfrwt beam="2">  1       21 0.81435110E-01 0.23863373E+03</pdfrwt>
<totfact> 0.29120767E+03</totfact>
</mgrwt>
</event>
<event>
 6      1 +2.5196620e+02 2.10984500e+02 7.54677100e-03 1.06301000e-01
       21 -1    0    0  505  502 +0.0000000000e+00 +0.0000000000e+00 +2.8998547839e+02 2.8998547839e+02 0.0000000000e+00 0.0000e+00 -1.0000e+00
       21 -1    0    0  504  503 -0.0000000000e+00 -0.0000000000e+00 -5.0940494713e+02 5.0940494713e+02 0.0000000000e+00 0.0000e+00 -1.0000e+00
        6  1    1    2  501    0 +9.2189996442e+01 +5.6701720809e+01 -1.1686962063e+02 2.3516289846e+02 1.7300000000e+02 0.0000e+00 -1.0000e+00
       -6  1    1    2    0  503 -8.5406800778e+01 -9.6339052317e+01 -2.7873148707e+02 3.5241421155e+02 1.7300000000e+02 0.0000e+00 -1.0000e+00
       21  1    1    2  504  502 -1.8583901710e+01 +1.0913104569e+01 -9.5004389358e+00 2.3552401026e+01 0.0000000000e+00 0.0000e+00 1.0000e+00
       21  1    1    2  505  501 +1.1800706046e+01 +2.8724226939e+01 +1.8568207788e+02 1.8826091448e+02 0.0000000000e+00 0.0000e+00 -1.0000e+00
<mgrwt>
<rscale>  4 0.21098448E+03</rscale>
<asrwt>0</asrwt>
<pdfrwt beam="1">  1       21 0.44613151E-01 0.21098448E+03</pdfrwt>
<pdfrwt beam="2">  1       21 0.78369990E-01 0.21098448E+03</pdfrwt>
<totfact> 0.68568441E+03</totfact>
</mgrwt>
</event>
<event>
 6      1 +2.5196620e+02 2.15236500e+02 7.54677100e-03 1.02366900e-01
       21 -1    0    0  503  502 +0.0000000000e+00 +0.0000000000e+00 +1.3971168621e+02 1.3971168621e+02 0.0000000000e+00 0.0000e+00 1.0000e+00
       21 -1    0    0  505  503 -0.0000000000e+00 -0.0000000000e+00 -7.4677855552e+02 7.4677855552e+02 0.0000000000e+00 0.0000e+00 1.0000e+00
        6  1    1    2  501    0 -6.1796065787e+01 +8.2244873222e+01 -5.4326957008e+02 5.7935636589e+02 1.7300000000e+02 0.0000e+00 1.0000e+00
       -6  1    1    2    0  502 +1.1066162904e+02 -7.5123515552e+01 +5.8093986561e+00 2.1875165792e+02 1.7300000000e+02 0.0000e+00 1.0000e+00
       21  1    1    2  504  501 -2.8710082899e+01 -1.4476908146e+01 -3.3885792214e+01 4.6712917309e+01 0.0000000000e+00 0.0000e+00 1.0000e+00
       21  1    1    2  505  504 -2.0155480353e+01 +7.3555504770e+00 -3.5720905677e+01 4.1669300612e+01 0.0000000000e+00 0.0000e+00 1.0000e+00
<mgrwt>
<rscale>  4 0.21523655E+03</rscale>
<asrwt>0</asrwt>
<pdfrwt beam="1">  1       21 0.21494105E-01 0.21523655E+03</pdfrwt>
<pdfrwt beam="2">  1       21 0.11488901E+00 0.21523655E+03</pdfrwt>
<totfact> 0.11669968E+04</totfact>
</mgrwt>
</event>
<event>
 6      1 +2.5196620e+02 1.85539200e+02 7.54677100e-03 9.49153200e-02
       21 -1    0    0  505  502 +0.0000000000e+00 +0.0000000000e+00 +2.8468554472e+02 2.8468554472e+02 0.0000000000e+00 0.0000e+00 -1.0000e+00
       21 -1    0    0  504  503 -0.0000000000e+00 -0.0000000000e+00 -3.1215352876e+02 3.1215352876e+02 0.0000000000e+00 0.0000e+00 -1.0000e+00
        6  1    1    2  501    0 -1.8784752352e+01 +3.4511282844e+01 +6.5714263205e+01 1.8918578158e+02 1.7300000000e+02 0.0000e+00 -1.0000e+00
       -6  1    1    2    0  502 +7.0284456643e+01 +2.9434699755e+01 -9.7067553840e+01 2.1250274446e+02 1.7300000000e+02 0.0000e+00 -1.0000e+00
       21  1    1    2  504  501 +5.2834149946e+01 -2.9274482667e+01 -4.4506000810e+01 7.5028173669e+01 0.0000000000e+00 0.0000e+00 -1.0000e+00
       21  1    1    2  505  503 -1.0433385424e+02 -3.4671499932e+01 +4.8391307404e+01 1.2012237377e+02 0.0000000000e+00 0.0000e+00 -1.0000e+00
<mgrwt>
<rscale>  4 0.18553924E+03</rscale>
<asrwt>0</asrwt>
<pdfrwt beam="1">  1       21 0.43797776E-01 0.18553924E+03</pdfrwt>
<pdfrwt beam="2">  1       21 0.48023620E-01 0.18553924E+03</pdfrwt>
<totfact> 0.20842809E+04</totfact>
</mgrwt>
</event>
<event>
 6      1 +2.5196620e+02 1.83626000e+02 7.54677100e-03 1.16128000e-01
       21 -1    0    0  501  502 +0.0000000000e+00 +0.0000000000e+00 +1.0948458456e+02 1.0948458456e+02 0.0000000000e+00 0.0000e+00 1.0000e+00
       21 -1    0    0  505  503 -0.0000000000e+00 -0.0000000000e+00 -7.8630131186e+02 7.8630131186e+02 0.0000000000e+00 0.0000e+00 -1.0000e+00
        6  1    1    2  501    0 +3.9070971885e+01 -2.6275560406e+01 -6.4350033373e+01 1.9049113553e+02 1.7300000000e+02 0.0000e+00 1.0000e+00
       -6  1    1    2    0  503 -8.9948266217e+01 +1.1505241464e+01 -1.7204064947e+02 2.6028839053e+02 1.7300000000e+02 0.0000e+00 -1.0000e+00
       21  1    1    2  504  502 +2.7007847897e+01 -1.0449500499e+01 -2.0025723996e+02 2.0234025320e+02 0.0000000000e+00 0.0000e+00 -1.0000e+00
       21  1    1    2  505  504 +2.3869446435e+01 +2.5219819441e+01 -2.4016880450e+02 2.4266611717e+02 0.0000000000e+00 0.0000e+00 -1.0000e+00
<mgrwt>
<rscale>  4 0.18362596E+03</rscale>
<asrwt>0</asrwt>
<pdfrwt beam="1">  1       21 0.16843782E-01 0.18362596E+03</pdfrwt>
<pdfrwt beam="2">  1       21 0.12096944E+00 0.18362596E+03</pdfrwt>
<totfact> 0.16523927E+04</totfact>
</mgrwt>
</event>
<event>
 6      1 +2.5196620e+02 2.21442500e+02 7.54677100e-03 1.14954000e-01
       21 -1    0    0  504  502 +0.0000000000e+00 +0.0000000000e+00 +1.5767802295e+03 1.5767802295e+03 0.0000000000e+00 0.0000e+00 -1.0000e+00
       21 -1    0    0  502  503 -0.0000000000e+00 -0.0000000000e+00 -8.3848171218e+01 8.3848171218e+01 0.0000000000e+00 0.0000e+00 -1.0000e+00
        6  1    1    2  501    0 +1.5591885087e+02 -1.8347155254e+02 +5.6384434669e+02 6.3704155747e+02 1.7300000000e+02 0.0000e+00 -1.0000e+00
       -6  1    1    2    0  503 -6.6210443340e+01 +6.7610737746e+01 +2.1804415423e+02 2.9398518306e+02 1.7300000000e+02 0.0000e+00 -1.0000e+00
       21  1    1    2  504  505 -7.3328072996e+01 +7.5113107876e+01 +6.1628446755e+02 6.2516040358e+02 0.0000000000e+00 0.0000e+00 -1.0000e+00
       21  1    1    2  505  501 -1.6380334538e+01 +4.0747706920e+01 +9.4759089808e+01 1.0444125660e+02 0.0000000000e+00 0.0000e+00 -1.0000e+00
<mgrwt>
<rscale>  4 0.22144247E+03</rscale>
<asrwt>0</asrwt>
<pdfrwt beam="1">  1       21 0.24258155E+00 0.22144247E+03</pdfrwt>
<pdfrwt beam="2">  1       21 0.12899720E-01 0.22144247E+03</pdfrwt>
<totfact> 0.36830392E+03</totfact>
</mgrwt>
</event>
<event>
 6      1 +2.5196620e+02 3.07380400e+02 7.54677100e-03 1.11396600e-01
       21 -1    0    0  501  502 +0.0000000000e+00 +0.0000000000e+00 +4.1181165350e+02 4.1181165350e+02 0.0000000000e+00 0.0000e+00 1.0000e+00
       21 -1    0    0  505  503 -0.0000000000e+00 -0.0000000000e+00 -5.0034136905e+02 5.0034136905e+02 0.0000000000e+00 0.0000e+00 -1.0000e+00
        6  1    1    2  501    0 -2.5156831784e+02 -1.9826424707e+02 -1.1752012797e+02 3.8253798594e+02 1.7300000000e+02 0.0000e+00 -1.0000e+00
       -6  1    1    2    0  503 +2.1215606500e+02 -3.0756747646e+00 +1.4888411582e+01 2.7417206366e+02 1.7300000000e+02 0.0000e+00 1.0000e+00
       21  1    1    2  504  502 +8.0660226979e+01 +4.3110021675e+01 +2.0365777324e+00 9.1480565335e+01 0.0000000000e+00 0.0000e+00 -1.0000e+00
       21  1    1    2  505  504 -4.1247974138e+01 +1.5822990016e+02 +1.2065423110e+01 1.6396240761e+02 0.0000000000e+00 0.0000e+00 1.0000e+00
<mgrwt>
<rscale>  4 0.30738038E+03</rscale>
<asrwt>0</asrwt>
<pdfrwt beam="1">  1       21 0.63355639E-01 0.30738038E+03</pdfrwt>
<pdfrwt beam="2">  1       21 0.76975595E-01 0.30738038E+03</pdfrwt>
<totfact> 0.32006477E+03</totfact>
</mgrwt>
</event>
<event>
 6      1 +2.5196620e+02 1.78139300e+02 7.54677100e-03 1.06301000e-01
       21 -1    0    0  505  502 +0.0000000000e+00 +0.0000000000e+00 +4.0951068590e+02 4.0951068590e+02 0.0000000000e+00 0.0000e+00 -1.0000e+00
       21 -1    0    0  502  503 -0.0000000000e+00 -0.0000000000e+00 -3.3259271038e+02 3.3259271038e+02 0.0000000000e+00 0.0000e+00 -1.0000e+00
        6  1    1    2  501    0 -3.9902032405e+01 +1.0333290146e+02 -3.0659135720e+01 2.0769892469e+02 1.7300000000e+02 0.0000e+00 -1.0000e+00
       -6  1    1    2    0  504 +6.8823433362e+00 +1.2473244653e+01 -4.8441523032e+01 1.8021800586e+02 1.7300000000e+02 0.0000e+00 -1.0000e+00
       21  1    1    2  504  503 +7.5944480340e+00 -1.5040455666e+02 -3.8128805707e+01 1.5534803549e+02 0.0000000000e+00 0.0000e+00 -1.0000e+00
       21  1    1    2  505  501 +2.5425241035e+01 +3.4598410554e+01 +1.9414743997e+02 1.9883843025e+02 0.0000000000e+00 0.0000e+00 -1.0000e+00
<mgrwt>
<rscale>  4 0.17813933E+03</rscale>
<asrwt>0</asrwt>
<pdfrwt beam="1">  1       21 0.63001644E-01 0.17813933E+03</pdfrwt>
<pdfrwt beam="2">  1       21 0.51168109E-01 0.17813933E+03</pdfrwt>
<totfact> 0.85575223E+03</totfact>
</mgrwt>
</event>
<event>
 6      1 +2.5196620e+02 3.34910700e+02 7.54677100e-03 1.15987100e-01
       21 -1    0    0  501  502 +0.0000000000e+00 +0.0000000000e+00 +2.2152692113e+02 2.2152692113e+02 0.0000000000e+00 0.0000e+00 -1.0000e+00
       21 -1    0    0  505  503 -0.0000000000e+00 -0.0000000000e+00 -1.4528862332e+03 1.4528862332e+03 0.0000000000e+00 0.0000e+00 -1.0000e+00
        6  1    1    2  501    0 -9.9984631556e+01 -7.0612965012e+01 -5.2826833697e+01 2.1840968782e+02 1.7300000000e+02 0.0000e+00 1.0000e+00
       -6  1    1    2    0  503 +3.5719714072e+02 -1.0032609491e+01 -2.4828274038e+02 4.6825609420e+02 1.7300000000e+02 0.0000e+00 -1.0000e+00
       21  1    1    2  504  502 -2.7188269729e+02 +3.4868304457e+01 -6.8457087809e+02 7.3740984999e+02 0.0000000000e+00 0.0000e+00 -1.0000e+00
       21  1    1    2  505  504 +1.4670188131e+01 +4.5777270046e+01 -2.4567885989e+02 2.5033752229e+02 0.0000000000e+00 0.0000e+00 -1.0000e+00
<mgrwt>
<rscale>  4 0.29784095E+03</rscale>
<asrwt>0</asrwt>
<pdfrwt beam="1">  1       21 0.34081065E-01 0.33491067E+03</pdfrwt>
<pdfrwt beam="2">  1       21 0.22352096E+00 0.33491067E+03</pdfrwt>
<totfact> 0.69768299E+02</totfact>
</mgrwt>
</event>
<event>
 6      1 +2.5196620e+02 3.47521700e+02 7.54677100e-03 1.09079000e-01
       21 -1    0    0  503  502 +0.0000000000e+00 +0.0000000000e+00 +7.6328810699e+02 7.6328810699e+02 0.0000000000e+00 0.0000e+00 1.0000e+00
       21 -1    0    0  501  503 -0.0000000000e+00 -0.0000000000e+00 -3.1854902553e+02 3.1854902553e+02 0.0000000000e+00 0.0000e+00 -1.0000e+00
        6  1    1    2  501    0 -2.7667317136e+02 +2.2091616987e+02 +1.4141071116e+01 3.9431075024e+02 1.7300000000e+02 0.0000e+00 -1.0000e+00
       -6  1    1    2    0  504 +1.8783185140e+02 -1.6017826657e+02 +1.0465333991e+02 3.1909121429e+02 1.7300000000e+02 0.0000e+00 -1.0000e+00
       21  1    1    2  504  505 -1.2654448265e+01 -4.0110690143e+01 +2.2284820609e+01 4.7598484789e+01 0.0000000000e+00 0.0000e+00 1.0000e+00
       21  1    1    2  505  502 +1.0149576823e+02 -2.0627213157e+01 +3.0365984982e+02 3.2083668320e+02 0.0000000000e+00 0.0000e+00 1.0000e+00
<mgrwt>
<rscale>  4 0.34752165E+03</rscale>
<asrwt>0</asrwt>
<pdfrwt beam="1">  1       21 0.11742894E+00 0.34752165E+03</pdfrwt>
<pdfrwt beam="2">  1       21 0.49007543E-01 0.34752165E+03</pdfrwt>
<totfact> 0.19911857E+03</totfact>
</mgrwt>
</event>
<event>
 6      1 +2.5196620e+02 2.39976200e+02 7.54677100e-03 1.16128000e-01
       21 -1    0    0  501  502 +0.0000000000e+00 +0.0000000000e+00 +3.2158934237e+02 3.2158934237e+02 0.0000000000e+00 0.0000e+00 1.0000e+00
       21 -1    0    0  502  503 -0.0000000000e+00 -0.0000000000e+00 -3.0244725836e+03 3.0244725836e+03 0.0000000000e+00 0.0000e+00 1.0000e+00
        6  1    1    2  501    0 -6.0099088595e+01 +2.2597393736e+02 +2.9919931258e+01 2.9240438284e+02 1.7300000000e+02 0.0000e+00 1.0000e+00
       -6  1    1    2    0  504 +6.0749949690e+00 -1.2971176479e+02 +8.4869596925e+01 2.3236586662e+02 1.7300000000e+02 0.0000e+00 1.0000e+00
       21  1    1    2  504  505 +6.2875645550e+01 -5.8008305705e+01 -1.1584440715e+03 1.1615984577e+03 0.0000000000e+00 0.0000e+00 1.0000e+00
       21  1    1    2  505  503 -8.8515519234e+00 -3.8253866874e+01 -1.6592286980e+03 1.6596932188e+03 0.0000000000e+00 0.0000e+00 1.0000e+00
<mgrwt>
<rscale>  4 0.23997618E+03</rscale>
<asrwt>0</asrwt>
<pdfrwt beam="1">  1       21 0.49475284E-01 0.23997618E+03</pdfrwt>
<pdfrwt beam="2">  1       21 0.46530347E+00 0.23997618E+03</pdfrwt>
<totfact> 0.11693875E+01</totfact>
</mgrwt>
</event>
<event>
 6      1 +2.5196620e+02 2.64887000e+02 7.54677100e-03 1.06301000e-01
       21 -1    0    0  501  502 +0.0000000000e+00 +0.0000000000e+00 +6.8299016703e+02 6.8299016703e+02 0.0000000000e+00 0.0000e+00 1.0000e+00
       21 -1    0    0  504  503 -0.0000000000e+00 -0.0000000000e+00 -2.3395374723e+02 2.3395374723e+02 0.0000000000e+00 0.0000e+00 -1.0000e+00
        6  1    1    2  501    0 +1.5823149876e+02 -5.2638179394e+01 +6.6516972362e+01 2.4932206630e+02 1.7300000000e+02 0.0000e+00 1.0000e+00
       -6  1    1    2    0  503 -1.9319046186e+02 +1.2061913210e+02 +2.6091581791e+02 3.8714027641e+02 1.7300000000e+02 0.0000e+00 -1.0000e+00
       21  1    1    2  504  505 +4.4438501623e+01 -3.8199314448e+01 -6.7169482378e+01 8.9138697622e+01 0.0000000000e+00 0.0000e+00 1.0000e+00
       21  1    1    2  505  502 -9.4795385250e+00 -2.9781638254e+01 +1.8877311191e+02 1.9134287394e+02 0.0000000000e+00 0.0000e+00 -1.0000e+00
<mgrwt>
<rscale>  4 0.26488703E+03</rscale>
<asrwt>0</asrwt>
<pdfrwt beam="1">  1       21 0.10507541E+00 0.26488703E+03</pdfrwt>
<pdfrwt beam="2">  1       21 0.35992885E-01 0.26488703E+03</pdfrwt>
<totfact> 0.51649395E+03</totfact>
</mgrwt>
</event>
<event>
 6      1 +2.5196620e+02 1.99885400e+02 7.54677100e-03 9.49153200e-02
       21 -1    0    0  505  502 +0.0000000000e+00 +0.0000000000e+00 +1.2442792031e+03 1.2442792031e+03 0.0000000000e+00 0.0000e+00 1.0000e+00
       21 -1    0    0  504  503 -0.0000000000e+00 -0.0000000000e+00 -1.1560823801e+02 1.1560823801e+02 0.0000000000e+00 0.0000e+00 1.0000e+00
        6  1    1    2  501    0 +2.6659346071e+01 -8.2156788184e+01 +1.7799552569e+01 1.9418105636e+02 1.7300000000e+02 0.0000e+00 1.0000e+00
       -6  1    1    2    0  502 -6.1846345831e+01 +1.0484524669e+02 +7.9757967559e+02 8.2515443109e+02 1.7300000000e+02 0.0000e+00 1.0000e+00
       21  1    1    2  504  501 +2.1944167844e+01 -4.2720915830e+00 -3.7769150693e+00 2.2672943265e+01 0.0000000000e+00 0.0000e+00 -1.0000e+00
       21  1    1    2  505  503 +1.3242831916e+01 -1.8416366921e+01 +3.1706865197e+02 3.1787901036e+02 0.0000000000e+00 0.0000e+00 1.0000e+00
<mgrwt>
<rscale>  4 0.19988539E+03</rscale>
<asrwt>0</asrwt>
<pdfrwt beam="1">  1       21 0.19142756E+00 0.19988539E+03</pdfrwt>
<pdfrwt beam="2">  1       21 0.17785884E-01 0.19988539E+03</pdfrwt>
<totfact> 0.43520413E+03</totfact>
</mgrwt>
</event>
<event>
 6      1 +2.5196620e+02 4.10205200e+02 7.54677100e-03 1.14954000e-01
       21 -1    0    0  505  502 +0.0000000000e+00 +0.0000000000e+00 +8.2208435346e+01 8.2208435346e+01 0.0000000000e+00 0.0000e+00 1.0000e+00
       21 -1    0    0  502  503 -0.0000000000e+00 -0.0000000000e+00 -1.6857259695e+03 1.6857259695e+03 0.0000000000e+00 0.0000e+00 1.0000e+00
        6  1    1    2  501    0 +9.2215259283e+01 -6.7583755803e+01 -9.3731972869e+02 9.5998358938e+02 1.7300000000e+02 0.0000e+00 1.0000e+00
       -6  1    1    2    0  503 +8.5519422417e+01 +5.6036481032e+00 -5.5168351779e+02 5.8449009939e+02 1.7300000000e+02 0.0000e+00 1.0000e+00
       21  1    1    2  504  501 -1.7975405078e+01 +1.1454627613e+01 -2.7078331807e+01 3.4460988595e+01 0.0000000000e+00 0.0000e+00 1.0000e+00
       21  1    1    2  505  504 -1.5975927662e+02 +5.0525480087e+01 -8.7435955846e+01 1.8899972746e+02 0.0000000000e+00 0.0000e+00 1.0000e+00
<mgrwt>
<rscale>  4 0.41020520E+03</rscale>
<asrwt>0</asrwt>
<pdfrwt beam="1">  1       21 0.12647451E-01 0.41020520E+03</pdfrwt>
<pdfrwt beam="2">  1       21 0.25934246E+00 0.41020520E+03</pdfrwt>
<totfact> 0.26598088E+03</totfact>
</mgrwt>
</event>
<event>
 6      1 +2.5196620e+02 1.88033900e+02 7.54677100e-03 1.13287100e-01
       21 -1    0    0  505  502 +0.0000000000e+00 +0.0000000000e+00 +2.4800559991e+02 2.4800559991e+02 0.0000000000e+00 0.0000e+00 1.0000e+00
       21 -1    0    0  502  503 -0.0000000000e+00 -0.0000000000e+00 -4.9676228270e+02 4.9676228270e+02 0.0000000000e+00 0.0000e+00 1.0000e+00
        6  1    1    2  501    0 +6.6921611336e+01 +2.1717044153e+01 -3.2158305201e+02 3.7188007665e+02 1.7300000000e+02 0.0000e+00 1.0000e+00
       -6  1    1    2    0  503 -7.4981933633e+01 -3.9806165944e+01 -4.0884786717e+01 1.9699590606e+02 1.7300000000e+02 0.0000e+00 1.0000e+00
       21  1    1    2  504  501 -6.5623944543e+00 +3.4675148396e+01 -1.9865321084e+01 4.0497677946e+01 0.0000000000e+00 0.0000e+00 1.0000e+00
       21  1    1    2  505  504 +1.4622716752e+01 -1.6586026605e+01 +1.3357647702e+02 1.3539422195e+02 0.0000000000e+00 0.0000e+00 1.0000e+00
<mgrwt>
<rscale>  4 0.18803393E+03</rscale>
<asrwt>0</asrwt>
<pdfrwt beam="1">  1       21 0.38154708E-01 0.18803393E+03</pdfrwt>
<pdfrwt beam="2">  1       21 0.76424966E-01 0.18803393E+03</pdfrwt>
<totfact> 0.10130348E+04</totfact>
</mgrwt>
</event>
<event>
 6      1 +2.5196620e+02 2.17602700e+02 7.54677100e-03 1.16321900e-01
       21 -1    0    0  504  502 +0.0000000000e+00 +0.0000000000e+00 +5.2776256307e+02 5.2776256307e+02 0.0000000000e+00 0.0000e+00 -1.0000e+00
       21 -1    0    0  501  503 -0.0000000000e+00 -0.0000000000e+00 -5.0194981417e+02 5.0194981417e+02 0.0000000000e+00 0.0000e+00 -1.0000e+00
        6  1    1    2  501    0 -7.2576846495e+01 +8.5195984766e+01 +3.1063638870e+02 3.7275960142e+02 1.7300000000e+02 0.0000e+00 -1.0000e+00
       -6  1    1    2    0  502 +5.2491158231e+01 -2.3589539214e+02 +1.7786517147e+01 2.9773699454e+02 1.7300000000e+02 0.0000e+00 -1.0000e+00
       21  1    1    2  504  505 -1.9514821114e+01 +1.4995020350e+02 -2.1275379826e+02 2.6101737576e+02 0.0000000000e+00 0.0000e+00 -1.0000e+00
       21  1    1    2  505  503 +3.9600509379e+01 +7.4920387648e-01 -8.9856358682e+01 9.8198405512e+01 0.0000000000e+00 0.0000e+00 -1.0000e+00
<mgrwt>
<rscale>  4 0.21760265E+03</rscale>
<asrwt>0</asrwt>
<pdfrwt beam="1">  1       21 0.81194241E-01 0.21760265E+03</pdfrwt>
<pdfrwt beam="2">  1       21 0.77223048E-01 0.21760265E+03</pdfrwt>
<totfact> 0.19378222E+03</totfact>
</mgrwt>
</event>
<event>
 6      1 +2.5196620e+02 1.99907500e+02 7.54677100e-03 1.16128000e-01
       21 -1    0    0  501  502 +0.0000000000e+00 +0.0000000000e+00 +7.1777441729e+01 7.1777441729e+01 0.0000000000e+00 0.0000e+00 -1.0000e+00
       21 -1    0    0  504  503 -0.0000000000e+00 -0.0000000000e+00 -1.1757155423e+03 1.1757155423e+03 0.0000000000e+00 0.0000e+00 1.0000e+00
        6  1    1    2  501    0 +1.3707300981e+02 +7.6824819908e+01 -6.6271648667e+02 7.0271843911e+02 1.7300000000e+02 0.0000e+00 1.0000e+00
       -6  1    1    2    0  503 -8.5900880197e+01 +8.4960383649e+00 -2.0148667732e+02 2.7924366604e+02 1.7300000000e+02 0.0000e+00 -1.0000e+00
       21  1    1    2  504  505 -2.0333416941e+01 +2.0992436003e+00 -5.8417889174e+01 6.1891069176e+01 0.0000000000e+00 0.0000e+00 1.0000e+00
       21  1    1    2  505  502 -3.0838712671e+01 -8.7420101874e+01 -1.8131704740e+02 2.0363980968e+02 0.0000000000e+00 0.0000e+00 1.0000e+00
<mgrwt>
<rscale>  4 0.19990754E+03</rscale>
<asrwt>0</asrwt>
<pdfrwt beam="1">  1       21 0.11042683E-01 0.19990754E+03</pdfrwt>
<pdfrwt beam="2">  1       21 0.18087932E+00 0.19990754E+03</pdfrwt>
<totfact> 0.12146348E+04</totfact>
</mgrwt>
</event>
<event>
 6      1 +2.5196620e+02 2.15514100e+02 7.54677100e-03 1.12691600e-01
       21 -1    0    0  505  502 +0.0000000000e+00 +0.0000000000e+00 +5.1039612921e+02 5.1039612921e+02 0.0000000000e+00 0.0000e+00 1.0000e+00
       21 -1    0    0  501  503 -0.0000000000e+00 -0.0000000000e+00 -1.6562659697e+02 1.6562659697e+02 0.0000000000e+00 0.0000e+00 -1.0000e+00
        6  1    1    2  501    0 -9.8080213793e+00 -1.3677505988e+02 +4.2814024483e+01 2.2486808351e+02 1.7300000000e+02 0.0000e+00 -1.0000e+00
       -6  1    1    2    0  504 -7.8637510816e+00 +1.1835842610e+02 +9.7279677053e+01 2.3122043849e+02 1.7300000000e+02 0.0000e+00 -1.0000e+00
       21  1    1    2  504  502 +3.3586377140e+01 -1.8790783148e+01 +7.8479733942e+01 8.7408277069e+01 0.0000000000e+00 0.0000e+00 1.0000e+00
       21  1    1    2  505  503 -1.5914604679e+01 +3.7207416927e+01 +1.2619609677e+02 1.3252592711e+02 0.0000000000e+00 0.0000e+00 -1.0000e+00
<mgrwt>
<rscale>  4 0.21551410E+03</rscale>
<asrwt>0</asrwt>
<pdfrwt beam="1">  1       21 0.78522481E-01 0.21551410E+03</pdfrwt>
<pdfrwt beam="2">  1       21 0.25481015E-01 0.21551410E+03</pdfrwt>
<totfact> 0.20668598E+04</totfact>
</mgrwt>
</event>
<event>
 6      1 +2.5196620e+02 1.86490200e+02 7.54677100e-03 1.11396600e-01
       21 -1    0    0  501  502 +0.0000000000e+00 +0.0000000000e+00 +8.6076519581e+01 8.6076519581e+01 0.0000000000e+00 0.0000e+00 1.0000e+00
       21 -1    0    0  505  503 -0.0000000000e+00 -0.0000000000e+00 -2.7539764842e+03 2.7539764842e+03 0.0000000000e+00 0.0000e+00 1.0000e+00
        6  1    1    2  501    0 -1.6253806613e+02 +1.9562340313e+01 -3.9047401642e+02 4.5738415539e+02 1.7300000000e+02 0.0000e+00 -1.0000e+00
       -6  1    1    2    0  503 +2.2252695925e+01 +6.8222129731e+01 -2.1574592708e+03 2.1655735838e+03 1.7300000000e+02 0.0000e+00 1.0000e+00
       21  1    1    2  504  502 +3.1288905650e+01 +4.7337153362e+00 -1.9416772793e+00 3.1704475840e+01 0.0000000000e+00 0.0000e+00 1.0000e+00
       21  1    1    2  505  504 +1.0899646456e+02 -9.2518185381e+01 -1.1802500005e+02 1.8539078874e+02 0.0000000000e+00 0.0000e+00 1.0000e+00
<mgrwt>
<rscale>  4 0.18649023E+03</rscale>
<asrwt>0</asrwt>
<pdfrwt beam="1">  1       21 0.13242541E-01 0.18649023E+03</pdfrwt>
<pdfrwt beam="2">  1       21 0.42368872E+00 0.18649023E+03</pdfrwt>
<totfact> 0.30690967E+02</totfact>
</mgrwt>
</event>
<event>
 6      1 +2.5196620e+02 1.78997100e+02 7.54677100e-03 1.12691600e-01
       21 -1    0    0  504  502 +0.0000000000e+00 +0.0000000000e+00 +9.3004712006e+01 9.3004712006e+01 0.0000000000e+00 0.0000e+00 1.0000e+00
       21 -1    0    0  501  503 -0.0000000000e+00 -0.0000000000e+00 -7.0533997323e+02 7.0533997323e+02 0.0000000000e+00 0.0000e+00 1.0000e+00
        6  1    1    2  501    0 +3.1492476091e+01 +3.3269845042e+01 -4.2836573065e+02 4.6424654854e+02 1.7300000000e+02 0.0000e+00 1.0000e+00
       -6  1    1    2    0  505 -3.2850026762e+01 -3.2493828990e+01 -2.1233491225e+02 2.7775904691e+02 1.7300000000e+02 0.0000e+00 1.0000e+00
       21  1    1    2  504  503 +1.7263856516e+01 -1.6358954077e+01 +2.3724318573e+01 3.3593145313e+01 0.0000000000e+00 0.0000e+00 1.0000e+00
       21  1    1    2  505  502 -1.5906305845e+01 +1.5582938026e+01 +4.6410630994e+00 2.2745944470e+01 0.0000000000e+00 0.0000e+00 1.0000e+00
<mgrwt>
<rscale>  4 0.17899710E+03</rscale>
<asrwt>0</asrwt>
<pdfrwt beam="1">  1       21 0.14308418E-01 0.17899710E+03</pdfrwt>
<pdfrwt beam="2">  1       21 0.10851384E+00 0.17899710E+03</pdfrwt>
<totfact> 0.29077321E+04</totfact>
</mgrwt>
</event>
<event>
 6      1 +2.5196620e+02 2.24127500e+02 7.54677100e-03 1.16128000e-01
       21 -1    0    0  501  502 +0.0000000000e+00 +0.0000000000e+00 +7.7577670543e+01 7.7577670543e+01 0.0000000000e+00 0.0000e+00 -1.0000e+00
       21 -1    0    0  505  503 -0.0000000000e+00 -0.0000000000e+00 -1.6317543738e+03 1.6317543738e+03 0.0000000000e+00 0.0000e+00 -1.0000e+00
        6  1    1    2  501    0 +1.3363845258e+02 -8.1246916439e+00 -1.5485702019e+02 2.6802041587e+02 1.7300000000e+02 0.0000e+00 -1.0000e+00
       -6  1    1    2    0  503 -1.7480824559e+02 -2.5994199253e+01 -7.5214696825e+02 7.9176239047e+02 1.7300000000e+02 0.0000e+00 -1.0000e+00
       21  1    1    2  504  502 +1.7942534650e+01 +9.8409264417e+00 -1.7738291501e+02 1.7855944926e+02 0.0000000000e+00 0.0000e+00 -1.0000e+00
       21  1    1    2  505  504 +2.3227258360e+01 +2.4277964455e+01 -4.6978979978e+02 4.7098978870e+02 0.0000000000e+00 0.0000e+00 1.0000e+00
<mgrwt>
<rscale>  4 0.22412746E+03</rscale>
<asrwt>0</asrwt>
<pdfrwt beam="1">  1       21 0.11935025E-01 0.22412746E+03</pdfrwt>
<pdfrwt beam="2">  1       21 0.25103917E+00 0.22412746E+03</pdfrwt>
<totfact> 0.37630703E+03</totfact>
</mgrwt>
</event>
<event>
 6      1 +2.5196620e+02 1.75528000e+02 7.54677100e-03 1.16321900e-01
       21 -1    0    0  504  502 +0.0000000000e+00 +0.0000000000e+00 +1.0232283561e+03 1.0232283561e+03 0.0000000000e+00 0.0000e+00 -1.0000e+00
       21 -1    0    0  505  503 -0.0000000000e+00 -0.0000000000e+00 -1.4215615890e+03 1.4215615890e+03 0.0000000000e+00 0.0000e+00 1.0000e+00
        6  1    1    2  501    0 -3.9329497956e+01 -2.5365496493e+01 +3.7414371565e+02 4.1485266997e+02 1.7300000000e+02 0.0000e+00 -1.0000e+00
       -6  1    1    2    0  502 +1.5375238423e+01 -4.2986631774e+01 +6.1069231375e+02 6.3636337932e+02 1.7300000000e+02 0.0000e+00 1.0000e+00
       21  1    1    2  504  503 +3.4437423605e+01 +4.0182302348e+01 -1.3395873104e+03 1.3406322075e+03 0.0000000000e+00 0.0000e+00 1.0000e+00
       21  1    1    2  505  501 -1.0483164072e+01 +2.8169825919e+01 -4.3581951888e+01 5.2941688220e+01 0.0000000000e+00 0.0000e+00 1.0000e+00
<mgrwt>
<rscale>  4 0.17552801E+03</rscale>
<asrwt>0</asrwt>
<pdfrwt beam="1">  1       21 0.15741975E+00 0.17552801E+03</pdfrwt>
<pdfrwt beam="2">  1       21 0.21870178E+00 0.17552801E+03</pdfrwt>
<totfact> 0.27785322E+01</totfact>
</mgrwt>
</event>
<event>
 6      1 +2.5196620e+02 2.37959700e+02 7.54677100e-03 9.49153200e-02
       21 -1    0    0  505  502 +0.0000000000e+00 +0.0000000000e+00 +2.7733397961e+02 2.7733397961e+02 0.0000000000e+00 0.0000e+00 -1.0000e+00
       21 -1    0    0  501  503 -0.0000000000e+00 -0.0000000000e+00 -6.1491980347e+02 6.1491980347e+02 0.0000000000e+00 0.0000e+00 1.0000e+00
        6  1    1    2  501    0 -8.1763739982e-01 +1.9253003647e+02 -2.8765653989e+02 3.8696739968e+02 1.7300000000e+02 0.0000e+00 1.0000e+00
       -6  1    1    2    0  502 +1.2043460317e+02 -1.0444584488e+02 -1.4076236071e+02 2.7414680437e+02 1.7300000000e+02 0.0000e+00 -1.0000e+00
       21  1    1    2  504  503 -9.6411667384e+01 +5.3322830285e+00 -3.1508301124e+00 9.6610406171e+01 0.0000000000e+00 0.0000e+00 -1.0000e+00
       21  1    1    2  505  504 -2.3205298387e+01 -9.3416474621e+01 +9.3983906855e+01 1.3452917286e+02 0.0000000000e+00 0.0000e+00 -1.0000e+00
<mgrwt>
<rscale>  4 0.23795968E+03</rscale>
<asrwt>0</asrwt>
<pdfrwt beam="1">  1       21 0.42666767E-01 0.23795968E+03</pdfrwt>
<pdfrwt beam="2">  1       21 0.94603045E-01 0.23795968E+03</pdfrwt>
<totfact> 0.47808991E+03</totfact>
</mgrwt>
</event>
</LesHouchesEvents>
