<LesHouchesEvents version="3.0">
<header>
<!--
#*********************************************************************
#                                                                    *
#                        MadGraph5_aMC@NLO                           *
#                                                                    *
#                           Going Beyond                             *
#                                                                    *
#                   http://madgraph.hep.uiuc.edu                     *
#                   http://madgraph.phys.ucl.ac.be                   *
#                   http://amcatnlo.cern.ch                          *
#                                                                    *
#                     The MadGraph5_aMC@NLO team                     *
#                                                                    *
#....................................................................*
#                                                                    *
# This file contains all the information necessary to reproduce      *
# the events generated:                                              *
#                                                                    *
# 1. software version                                                *
# 2. proc_card          : code generation info including model       *
# 3. param_card         : model primary parameters in the LH format  *
# 4. run_card           : running parameters (collider and cuts)     *
# 5. pythia_card        : present only if pythia has been run        *
# 6. pgs_card           : present only if pgs has been run           *
# 7. delphes_cards      : present only if delphes has been run       *
#                                                                    *
#                                                                    *
#*********************************************************************
-->
<MGVersion>
#3.5.0_lo_vect
</MGVersion>
<MG5ProcCard>
<![CDATA[
#************************************************************
#*                     MadGraph5_aMC@NLO                    *
#*                                                          *
#*                *                       *                 *
#*                  *        * *        *                   *
#*                    * * * * 5 * * * *                     *
#*                  *        * *        *                   *
#*                *                       *                 *
#*                                                          *
#*                                                          *
#*         VERSION 3.5.0_lo_vect         2023-06-09         *
[1;31m#*                                                          *[1;0m
[1;31m#*          WARNING: UNKNOWN DEVELOPMENT VERSION.           *[1;0m
[1;31m#*            WARNING: DO NOT USE FOR PRODUCTION            *[1;0m
[1;31m#*                                                          *[1;0m
#*                                                          *
#*    The MadGraph5_aMC@NLO Development Team - Find us at   *
#*    https://server06.fynu.ucl.ac.be/projects/madgraph     *
#*                                                          *
#************************************************************
#*                                                          *
#*               Command File for MadGraph5_aMC@NLO         *
#*                                                          *
#*     run as ./bin/mg5_aMC  filename                       *
#*                                                          *
#************************************************************
set group_subprocesses Auto
set ignore_six_quark_processes False
set low_mem_multicore_nlo_generation False
set complex_mass_scheme False
set include_lepton_initiated_processes False
set gauge unitary
set loop_optimized_output True
set loop_color_flows False
set max_npoint_for_channel 0
set default_unset_couplings 99
set max_t_for_channel 99
set nlo_mixed_expansion True
set stdout_level DEBUG
set zerowidth_tchannel F
generate g g > t t~ g g g
define p = g u c d s u~ c~ d~ s~
define j = g u c d s u~ c~ d~ s~
define l+ = e+ mu+
define l- = e- mu-
define vl = ve vm vt
define vl~ = ve~ vm~ vt~
output madevent CODEGEN_mad_gg_ttggg --hel_recycling=False --vector_si\
ze=16384 --me_exporter=standalone_cudacpp
]]>
</MG5ProcCard>
<MGProcCard>
#*********************************************************************
#                        MadGraph/MadEvent                           *
#                   http://madgraph.hep.uiuc.edu                     *
#                                                                    *
#                          proc_card.dat                             *
#*********************************************************************
#                                                                    *
#            This Files is generated by MADGRAPH 5                   *
#                                                                    *
# WARNING: This Files is generated for MADEVENT (compatibility issue)*
#          This files is NOT a valid MG4 proc_card.dat               *
#          Running this in MG4 will NEVER reproduce the result of MG5*
#                                                                    *
#*********************************************************************
#*********************************************************************
# Process(es) requested : mg2 input                                  *
#*********************************************************************
# Begin PROCESS # This is TAG. Do not modify this line
g g > t t~ g g g           #Process
# Be carefull the coupling are here in MG5 convention
          
end_coup           # End the couplings input

done               # this tells MG there are no more procs
# End PROCESS  # This is TAG. Do not modify this line
#*********************************************************************
# Model information                                                  *
#*********************************************************************
# Begin MODEL  # This is TAG. Do not modify this line
sm
# End   MODEL  # This is TAG. Do not modify this line
#*********************************************************************
# Start multiparticle definitions                                    *
#*********************************************************************
# Begin MULTIPARTICLES # This is TAG. Do not modify this line

# End  MULTIPARTICLES # This is TAG. Do not modify this line
</MGProcCard>
<MGRunCard>
<![CDATA[
#*********************************************************************
#                       MadGraph5_aMC@NLO                            *
#                                                                    *
#                     run_card.dat MadEvent                          *
#                                                                    *
#  This file is used to set the parameters of the run.               *
#                                                                    *
#  Some notation/conventions:                                        *
#                                                                    *
#   Lines starting with a '# ' are info or comments                  *
#                                                                    *
#   mind the format:   value    = variable     ! comment             *
#                                                                    *
#   To display more options, you can type the command:               *
#      update to_full                                                *
#*********************************************************************
#                                                                    
#*********************************************************************
# Tag name for the run (one word)                                    *
#*********************************************************************
  tag_1     = run_tag ! name of the run 
#*********************************************************************
# Number of events and rnd seed                                      *
# Warning: Do not generate more than 1M events in a single run       *
#*********************************************************************
  100 = nevents ! Number of unweighted events requested 
 21 = iseed   ! rnd seed (0=assigned automatically=default))
#*********************************************************************
# Collider type and energy                                           *
# lpp: 0=No PDF, 1=proton, -1=antiproton,                            *
#                2=elastic photon of proton/ion beam                 *
#             +/-3=PDF of electron/positron beam                     *
#             +/-4=PDF of muon/antimuon beam                         *
#*********************************************************************
     1        = lpp1    ! beam 1 type 
     1        = lpp2    ! beam 2 type
     6500.0     = ebeam1  ! beam 1 total energy in GeV
     6500.0     = ebeam2  ! beam 2 total energy in GeV
# To see polarised beam options: type "update beam_pol"

#*********************************************************************
# PDF CHOICE: this automatically fixes alpha_s and its evol.         *
# pdlabel: lhapdf=LHAPDF (installation needed) [1412.7420]           *
#          iww=Improved Weizsaecker-Williams Approx.[hep-ph/9310350] *
#          eva=Effective W/Z/A Approx.       [2111.02442]            *
#          edff=EDFF in gamma-UPC            [eq.(11) in 2207.03012] *
#          chff=ChFF in gamma-UPC            [eq.(13) in 2207.03012] *
#          none=No PDF, same as lhapdf with lppx=0                   *
#*********************************************************************
     nn23lo1    = pdlabel     ! PDF set 
     230000    = lhaid     ! if pdlabel=lhapdf, this is the lhapdf number
# To see heavy ion options: type "update ion_pdf"
#*********************************************************************
# Renormalization and factorization scales                           *
#*********************************************************************
 False = fixed_ren_scale  ! if .true. use fixed ren scale
     False = fixed_fac_scale  ! if .true. use fixed fac scale
 91.188  = scale            ! fixed ren scale
 91.188  = dsqrt_q2fact1    ! fixed fact scale for pdf1
 91.188  = dsqrt_q2fact2    ! fixed fact scale for pdf2
 -1 = dynamical_scale_choice ! Choose one of the preselected dynamical choices
 1.0  = scalefact        ! scale factor for event-by-event scales

 
#*********************************************************************
# Type and output format
#*********************************************************************
  False     = gridpack  !True = setting up the grid pack
  -1.0 = time_of_flight ! threshold (in mm) below which the invariant livetime is not written (-1 means not written)
  average =  event_norm       ! average/sum. Normalization of the weight in the LHEF
# To see MLM/CKKW  merging options: type "update MLM" or "update CKKW"

#*********************************************************************
#
#*********************************************************************
# Phase-Space Optimization strategy (basic options)
#*********************************************************************
   0  = nhel          ! using helicities importance sampling or not.
                             ! 0: sum over helicity, 1: importance sampling
   1  = sde_strategy  ! default integration strategy (hep-ph/2021.00773)
                             ! 1 is old strategy (using amp square)
			     ! 2 is new strategy (using only the denominator)
# To see advanced option for Phase-Space optimization: type "update psoptim"			     
#*********************************************************************
# Customization (custom cuts/scale/bias/...)                         *
# list of files containing fortran function that overwrite default   *
#*********************************************************************
  = custom_fcts ! List of files containing user hook function
#*******************************                                                 
# Parton level cuts definition *
#*******************************
  0.0  = dsqrt_shat ! minimal shat for full process
#                                                                    
#
#*********************************************************************
# BW cutoff (M+/-bwcutoff*Gamma) ! Define on/off-shell for "$" and decay  
#*********************************************************************
  15.0  = bwcutoff      ! (M+/-bwcutoff*Gamma)
#*********************************************************************
# Standard Cuts                                                      *
#*********************************************************************
# Minimum and maximum pt's (for max, -1 means no cut)                *
#*********************************************************************
 20.0  = ptj       ! minimum pt for the jets 
 -1.0  = ptjmax    ! maximum pt for the jets
 {} = pt_min_pdg ! pt cut for other particles (use pdg code). Applied on particle and anti-particle
 {}	= pt_max_pdg ! pt cut for other particles (syntax e.g. {6: 100, 25: 50}) 
#
# For display option for energy cut in the partonic center of mass frame type 'update ecut'
#
#*********************************************************************
# Maximum and minimum absolute rapidity (for max, -1 means no cut)   *
#*********************************************************************
 5.0 = etaj    ! max rap for the jets 
 {} = eta_min_pdg ! rap cut for other particles (use pdg code). Applied on particle and anti-particle
 {} = eta_max_pdg ! rap cut for other particles (syntax e.g. {6: 2.5, 23: 5})
#*********************************************************************
# Minimum and maximum DeltaR distance                                *
#*********************************************************************
 0.4 = drjj    ! min distance between jets 
 -1.0  = drjjmax ! max distance between jets
#*********************************************************************
# Minimum and maximum invariant mass for pairs                       *
#*********************************************************************
 0.0   = mmjj    ! min invariant mass of a jet pair 
 -1.0  = mmjjmax ! max invariant mass of a jet pair
 {} = mxx_min_pdg ! min invariant mass of a pair of particles X/X~ (e.g. {6:250})
 {'default': False} = mxx_only_part_antipart ! if True the invariant mass is applied only 
                       ! to pairs of particle/antiparticle and not to pairs of the same pdg codes.  
#*********************************************************************
# Inclusive cuts                                                     *
#*********************************************************************
 0.0  = ptheavy   ! minimum pt for at least one heavy final state
 0.0  = xptj ! minimum pt for at least one jet  
 #*********************************************************************
 # Control the pt's of the jets sorted by pt                          *
 #*********************************************************************
 0.0   = ptj1min ! minimum pt for the leading jet in pt
 0.0   = ptj2min ! minimum pt for the second jet in pt
 0.0   = ptj3min ! minimum pt for the third jet in pt
 -1.0  = ptj1max ! maximum pt for the leading jet in pt 
 -1.0  = ptj2max ! maximum pt for the second jet in pt
 -1.0  = ptj3max ! maximum pt for the third jet in pt
 0   = cutuse  ! reject event if fails any (0) / all (1) jet pt cuts
 #*********************************************************************
 # Control the Ht(k)=Sum of k leading jets                            *
 #*********************************************************************
 0.0   = htjmin ! minimum jet HT=Sum(jet pt)
 -1.0  = htjmax ! maximum jet HT=Sum(jet pt)
 0.0   = ihtmin  !inclusive Ht for all partons (including b)
 -1.0  = ihtmax  !inclusive Ht for all partons (including b)
 0.0   = ht2min ! minimum Ht for the two leading jets
 0.0   = ht3min ! minimum Ht for the three leading jets
 -1.0  = ht2max ! maximum Ht for the two leading jets
 -1.0  = ht3max ! maximum Ht for the three leading jets
 #*********************************************************************
 # WBF cuts                                                           *
 #*********************************************************************
 0.0   = xetamin ! minimum rapidity for two jets in the WBF case  
 0.0   = deltaeta ! minimum rapidity for two jets in the WBF case 
#*********************************************************************
# maximal pdg code for quark to be considered as a light jet         *
# (otherwise b cuts are applied)                                     *
#*********************************************************************
 4 = maxjetflavor    ! Maximum jet pdg code
#*********************************************************************
#
#*********************************************************************
# Store info for systematics studies                                 *
# WARNING: Do not use for interference type of computation           *
#*********************************************************************
   True  = use_syst      ! Enable systematics studies
#
systematics = systematics_program ! none, systematics [python], SysCalc [depreceted, C++]
['--mur=0.5,1,2', '--muf=0.5,1,2', '--pdf=errorset'] = systematics_arguments ! see: https://cp3.irmp.ucl.ac.be/projects/madgraph/wiki/Systematics#Systematicspythonmodule

#*********************************************************************
# Options for the cudacpp plugin
#*********************************************************************

# Set cudacpp-specific values of non-cudacpp-specific options
-O3 -ffast-math -fbounds-check = global_flag ! build flags for Fortran code (for a fair comparison to cudacpp)

# New cudacpp-specific options (default values are defined in banner.py)
FORTRAN = cudacpp_backend ! valid backends are FORTRAN, CPP, CUDA
]]>
</MGRunCard>
<slha>
######################################################################
## PARAM_CARD AUTOMATICALY GENERATED BY MG5 FOLLOWING UFO MODEL   ####
######################################################################
##                                                                  ##
##  Width set on Auto will be computed following the information    ##
##        present in the decay.py files of the model.               ##
##        See  arXiv:1402.1178 for more details.                    ##
##                                                                  ##
######################################################################

###################################
## INFORMATION FOR MASS
###################################
Block mass 
    5 4.700000e+00 # MB 
    6 1.730000e+02 # MT 
   15 1.777000e+00 # MTA 
   23 9.118800e+01 # MZ 
   25 1.250000e+02 # MH 
## Dependent parameters, given by model restrictions.
## Those values should be edited following the 
## analytical expression. MG5 ignores those values 
## but they are important for interfacing the output of MG5
## to external program such as Pythia.
  1 0.000000e+00 # d : 0.0 
  2 0.000000e+00 # u : 0.0 
  3 0.000000e+00 # s : 0.0 
  4 0.000000e+00 # c : 0.0 
  11 0.000000e+00 # e- : 0.0 
  12 0.000000e+00 # ve : 0.0 
  13 0.000000e+00 # mu- : 0.0 
  14 0.000000e+00 # vm : 0.0 
  16 0.000000e+00 # vt : 0.0 
  21 0.000000e+00 # g : 0.0 
  22 0.000000e+00 # a : 0.0 
  24 8.041900e+01 # w+ : cmath.sqrt(MZ__exp__2/2. + cmath.sqrt(MZ__exp__4/4. - (aEW*cmath.pi*MZ__exp__2)/(Gf*sqrt__2))) 

###################################
## INFORMATION FOR SMINPUTS
###################################
Block sminputs 
    1 1.325070e+02 # aEWM1 
    2 1.166390e-05 # Gf 
    3 1.180000e-01 # aS (Note that Parameter not used if you use a PDF set) 

###################################
## INFORMATION FOR YUKAWA
###################################
Block yukawa 
    5 4.700000e+00 # ymb 
    6 1.730000e+02 # ymt 
   15 1.777000e+00 # ymtau 

###################################
## INFORMATION FOR DECAY
###################################
DECAY   6 1.491500e+00 # WT 
DECAY  23 2.441404e+00 # WZ 
DECAY  24 2.047600e+00 # WW 
DECAY  25 6.382339e-03 # WH 
## Dependent parameters, given by model restrictions.
## Those values should be edited following the 
## analytical expression. MG5 ignores those values 
## but they are important for interfacing the output of MG5
## to external program such as Pythia.
DECAY  1 0.000000e+00 # d : 0.0 
DECAY  2 0.000000e+00 # u : 0.0 
DECAY  3 0.000000e+00 # s : 0.0 
DECAY  4 0.000000e+00 # c : 0.0 
DECAY  5 0.000000e+00 # b : 0.0 
DECAY  11 0.000000e+00 # e- : 0.0 
DECAY  12 0.000000e+00 # ve : 0.0 
DECAY  13 0.000000e+00 # mu- : 0.0 
DECAY  14 0.000000e+00 # vm : 0.0 
DECAY  15 0.000000e+00 # ta- : 0.0 
DECAY  16 0.000000e+00 # vt : 0.0 
DECAY  21 0.000000e+00 # g : 0.0 
DECAY  22 0.000000e+00 # a : 0.0
</slha>
<MGGenerationInfo>
#  Number of Events        :       100
#  Integrated weight (pb)  :       126.32836005810006
</MGGenerationInfo>
</header>
<init>
2212 2212 6.500000e+03 6.500000e+03 0 0 247000 247000 -4 1
1.263284e+02 4.095158e-01 1.263284e+02 1
<generator name='MadGraph5_aMC@NLO' version='3.5.0_lo_vect'>please cite 1405.0301 </generator>
</init>
<event>
 7      1 +1.2632836e+02 1.85396500e+02 7.54677100e-03 1.11889400e-01
       21 -1    0    0  505  502 +0.0000000000e+00 +0.0000000000e+00 +1.3342837641e+02 1.3342837641e+02 0.0000000000e+00 0.0000e+00 1.0000e+00
       21 -1    0    0  504  503 -0.0000000000e+00 -0.0000000000e+00 -9.2559451528e+02 9.2559451528e+02 0.0000000000e+00 0.0000e+00 1.0000e+00
        6  1    1    2  501    0 -2.7752995168e+01 -1.2439505422e+02 -2.0785259963e+02 2.9895829379e+02 1.7300000000e+02 0.0000e+00 1.0000e+00
       -6  1    1    2    0  502 -5.1890361862e+01 +4.2002689189e+01 -6.2111752497e+01 1.9555997891e+02 1.7300000000e+02 0.0000e+00 -1.0000e+00
       21  1    1    2  504  506 -4.9669422905e+00 +9.4768586347e+01 -3.5881988687e+02 3.7115693000e+02 0.0000000000e+00 0.0000e+00 1.0000e+00
       21  1    1    2  505  503 +4.4993388795e+01 -2.9518484773e+01 -5.6243175398e+01 7.7839840425e+01 0.0000000000e+00 0.0000e+00 1.0000e+00
       21  1    1    2  506  501 +3.9616910526e+01 +1.7142263460e+01 -1.0713872448e+02 1.1550784856e+02 0.0000000000e+00 0.0000e+00 1.0000e+00
<mgrwt>
<rscale>  5 0.18539655E+03</rscale>
<asrwt>0</asrwt>
<pdfrwt beam="1">  1       21 0.20527442E-01 0.18539655E+03</pdfrwt>
<pdfrwt beam="2">  1       21 0.14239916E+00 0.18539655E+03</pdfrwt>
<totfact> 0.75716466E+03</totfact>
</mgrwt>
</event>
<event>
 7      1 +1.2632836e+02 4.86464300e+02 7.54677100e-03 1.11921700e-01
       21 -1    0    0  504  502 +0.0000000000e+00 +0.0000000000e+00 +7.2393458572e+02 7.2393458572e+02 0.0000000000e+00 0.0000e+00 1.0000e+00
       21 -1    0    0  505  503 -0.0000000000e+00 -0.0000000000e+00 -1.3930423754e+03 1.3930423754e+03 0.0000000000e+00 0.0000e+00 -1.0000e+00
        6  1    1    2  501    0 +2.9486094658e+01 -1.2370101454e+02 +4.5506620396e+02 5.0317553673e+02 1.7300000000e+02 0.0000e+00 1.0000e+00
       -6  1    1    2    0  503 +5.9198167810e+01 -9.8798296929e+01 +1.1477516597e+02 2.3741917629e+02 1.7300000000e+02 0.0000e+00 1.0000e+00
       21  1    1    2  504  501 -3.6194753785e+01 -3.7991473253e+01 +4.1058892533e+01 6.6627658652e+01 0.0000000000e+00 0.0000e+00 -1.0000e+00
       21  1    1    2  505  506 -6.3492305176e+01 +2.0506897098e+02 -1.1110411772e+03 1.1315904971e+03 0.0000000000e+00 0.0000e+00 -1.0000e+00
       21  1    1    2  506  502 +1.1002796492e+01 +5.5421813745e+01 -1.6896687492e+02 1.7816409232e+02 0.0000000000e+00 0.0000e+00 1.0000e+00
<mgrwt>
<rscale>  5 0.48646426E+03</rscale>
<asrwt>0</asrwt>
<pdfrwt beam="1">  1       21 0.11137455E+00 0.48646426E+03</pdfrwt>
<pdfrwt beam="2">  1       21 0.21431421E+00 0.48646426E+03</pdfrwt>
<totfact> 0.52873516E+01</totfact>
</mgrwt>
</event>
<event>
 7      1 +1.2632836e+02 2.53221400e+02 7.54677100e-03 1.12597700e-01
       21 -1    0    0  505  502 +0.0000000000e+00 +0.0000000000e+00 +8.8591101006e+02 8.8591101006e+02 0.0000000000e+00 0.0000e+00 1.0000e+00
       21 -1    0    0  504  503 -0.0000000000e+00 -0.0000000000e+00 -1.2018072524e+03 1.2018072524e+03 0.0000000000e+00 0.0000e+00 1.0000e+00
        6  1    1    2  501    0 -6.4684142618e+01 -2.5138646600e+02 +4.1793160682e+02 5.2151224489e+02 1.7300000000e+02 0.0000e+00 1.0000e+00
       -6  1    1    2    0  506 +1.3624763036e+01 +1.2176835784e+02 +2.3076694151e+02 3.1336168948e+02 1.7300000000e+02 0.0000e+00 1.0000e+00
       21  1    1    2  504  502 +2.5003013227e+01 +6.9912767758e+01 -1.0552172439e+03 1.0578262511e+03 0.0000000000e+00 0.0000e+00 1.0000e+00
       21  1    1    2  505  501 +9.6778889251e+00 +2.5740408924e+01 +1.3443174393e+02 1.3721561122e+02 0.0000000000e+00 0.0000e+00 1.0000e+00
       21  1    1    2  506  503 +1.6378477430e+01 +3.3964931477e+01 -4.3809290656e+01 5.7802465699e+01 0.0000000000e+00 0.0000e+00 1.0000e+00
<mgrwt>
<rscale>  5 0.25322139E+03</rscale>
<asrwt>0</asrwt>
<pdfrwt beam="1">  1       21 0.13629400E+00 0.25322139E+03</pdfrwt>
<pdfrwt beam="2">  1       21 0.18489342E+00 0.25322139E+03</pdfrwt>
<totfact> 0.59681921E+01</totfact>
</mgrwt>
</event>
<event>
 7      1 +1.2632836e+02 3.68077300e+02 7.54677100e-03 1.17264400e-01
       21 -1    0    0  503  502 +0.0000000000e+00 +0.0000000000e+00 +2.5072663151e+03 2.5072663151e+03 0.0000000000e+00 0.0000e+00 -1.0000e+00
       21 -1    0    0  505  503 -0.0000000000e+00 -0.0000000000e+00 -6.9445688867e+02 6.9445688867e+02 0.0000000000e+00 0.0000e+00 -1.0000e+00
        6  1    1    2  501    0 +3.9827014882e+01 +8.0283574521e+01 -6.4519963838e+00 1.9494171362e+02 1.7300000000e+02 0.0000e+00 1.0000e+00
       -6  1    1    2    0  506 +3.0067716511e+02 -1.0950780631e+02 +1.7676132502e+03 1.8046562885e+03 1.7300000000e+02 0.0000e+00 -1.0000e+00
       21  1    1    2  504  501 -2.3719853712e+02 +7.2279853137e+01 -4.9077938737e+02 5.4986537466e+02 0.0000000000e+00 0.0000e+00 -1.0000e+00
       21  1    1    2  505  504 -9.8947701715e+01 -1.0054000898e+01 -8.9677123137e+00 9.9860655279e+01 0.0000000000e+00 0.0000e+00 -1.0000e+00
       21  1    1    2  506  502 -4.3579411564e+00 -3.3001620449e+01 +5.5139527226e+02 5.5239917168e+02 0.0000000000e+00 0.0000e+00 -1.0000e+00
<mgrwt>
<rscale>  5 0.31235798E+03</rscale>
<asrwt>0</asrwt>
<pdfrwt beam="1">  1       21 0.38573327E+00 0.36807728E+03</pdfrwt>
<pdfrwt beam="2">  1       21 0.10683952E+00 0.36807728E+03</pdfrwt>
<totfact> 0.57425962E+00</totfact>
</mgrwt>
</event>
<event>
 7      1 +1.2632836e+02 3.09991100e+02 7.54677100e-03 1.11732000e-01
       21 -1    0    0  505  502 +0.0000000000e+00 +0.0000000000e+00 +3.2318555198e+02 3.2318555198e+02 0.0000000000e+00 0.0000e+00 1.0000e+00
       21 -1    0    0  501  503 -0.0000000000e+00 -0.0000000000e+00 -7.0312978868e+02 7.0312978868e+02 0.0000000000e+00 0.0000e+00 1.0000e+00
        6  1    1    2  501    0 +1.7604540601e+02 +1.7668747425e+02 -2.9905978888e+02 4.2611759628e+02 1.7300000000e+02 0.0000e+00 1.0000e+00
       -6  1    1    2    0  504 -3.1026214534e+02 -5.8100852336e+01 -3.0432785541e+01 3.6123878849e+02 1.7300000000e+02 0.0000e+00 1.0000e+00
       21  1    1    2  504  502 +5.0777454149e+01 -9.7146533103e+01 -5.0210779062e+00 1.0973153588e+02 0.0000000000e+00 0.0000e+00 1.0000e+00
       21  1    1    2  505  506 +2.8899319947e+01 +3.0728824577e+01 -2.1791671852e+00 4.2239556377e+01 0.0000000000e+00 0.0000e+00 -1.0000e+00
       21  1    1    2  506  503 +5.4539965233e+01 -5.2168913388e+01 -4.3251417187e+01 8.6987863638e+01 0.0000000000e+00 0.0000e+00 1.0000e+00
<mgrwt>
<rscale>  5 0.30999111E+03</rscale>
<asrwt>0</asrwt>
<pdfrwt beam="1">  1       21 0.49720855E-01 0.30999111E+03</pdfrwt>
<pdfrwt beam="2">  1       21 0.10817381E+00 0.30999111E+03</pdfrwt>
<totfact> 0.24132994E+03</totfact>
</mgrwt>
</event>
<event>
 7      1 +1.2632836e+02 2.15376700e+02 7.54677100e-03 1.06933500e-01
       21 -1    0    0  503  502 +0.0000000000e+00 +0.0000000000e+00 +8.6593003483e+02 8.6593003483e+02 0.0000000000e+00 0.0000e+00 1.0000e+00
       21 -1    0    0  505  503 -0.0000000000e+00 -0.0000000000e+00 -1.6080065745e+02 1.6080065745e+02 0.0000000000e+00 0.0000e+00 1.0000e+00
        6  1    1    2  501    0 -1.6603602431e+02 -1.9712975445e+01 +3.7372235325e+02 4.4447042656e+02 1.7300000000e+02 0.0000e+00 1.0000e+00
       -6  1    1    2    0  502 +6.4594659797e+01 +1.3357257279e+02 +6.4901437872e+01 2.3697109299e+02 1.7300000000e+02 0.0000e+00 1.0000e+00
       21  1    1    2  504  501 -2.2412111279e+01 -1.7462367096e+01 +2.1647732836e+01 3.5719201188e+01 0.0000000000e+00 0.0000e+00 1.0000e+00
       21  1    1    2  505  506 +3.5376190272e+01 +2.1937338185e+01 +5.1372174260e+01 6.6119754484e+01 0.0000000000e+00 0.0000e+00 1.0000e+00
       21  1    1    2  506  504 +8.8477285516e+01 -1.1833456844e+02 +1.9348567917e+02 2.4345021705e+02 0.0000000000e+00 0.0000e+00 -1.0000e+00
<mgrwt>
<rscale>  5 0.21537673E+03</rscale>
<asrwt>0</asrwt>
<pdfrwt beam="1">  1       21 0.13322000E+00 0.21537673E+03</pdfrwt>
<pdfrwt beam="2">  1       21 0.24738563E-01 0.21537673E+03</pdfrwt>
<totfact> 0.61694729E+03</totfact>
</mgrwt>
</event>
<event>
 7      1 +1.2632836e+02 2.77441100e+02 7.54677100e-03 1.15490700e-01
       21 -1    0    0  506  502 +0.0000000000e+00 +0.0000000000e+00 +1.3189724354e+03 1.3189724354e+03 0.0000000000e+00 0.0000e+00 1.0000e+00
       21 -1    0    0  501  503 -0.0000000000e+00 -0.0000000000e+00 -1.7289018102e+03 1.7289018102e+03 0.0000000000e+00 0.0000e+00 1.0000e+00
        6  1    1    2  501    0 -2.0535159919e+02 -4.3125817095e+01 +3.1242714067e+02 4.1420868365e+02 1.7300000000e+02 0.0000e+00 1.0000e+00
       -6  1    1    2    0  504 +1.8927474732e+02 +8.0627658053e+01 -7.1296165079e+02 7.6195082828e+02 1.7300000000e+02 0.0000e+00 1.0000e+00
       21  1    1    2  504  502 +1.7424595740e+01 +2.1786117225e+01 +8.8569873925e+02 8.8613797354e+02 0.0000000000e+00 0.0000e+00 1.0000e+00
       21  1    1    2  505  503 +1.9588241787e+01 -1.5884696370e+01 -9.2728293302e+02 9.2762581932e+02 0.0000000000e+00 0.0000e+00 1.0000e+00
       21  1    1    2  506  505 -2.0935985656e+01 -4.3403261813e+01 +3.2189329109e+01 5.7950940802e+01 0.0000000000e+00 0.0000e+00 1.0000e+00
<mgrwt>
<rscale>  5 0.27744105E+03</rscale>
<asrwt>0</asrwt>
<pdfrwt beam="1">  1       21 0.20291884E+00 0.27744105E+03</pdfrwt>
<pdfrwt beam="2">  1       21 0.26598489E+00 0.27744105E+03</pdfrwt>
<totfact> 0.59674883E+00</totfact>
</mgrwt>
</event>
<event>
 7      1 +1.2632836e+02 2.18543100e+02 7.54677100e-03 1.11932800e-01
       21 -1    0    0  501  502 +0.0000000000e+00 +0.0000000000e+00 +6.1323102077e+02 6.1323102077e+02 0.0000000000e+00 0.0000e+00 -1.0000e+00
       21 -1    0    0  502  503 -0.0000000000e+00 -0.0000000000e+00 -1.5396285844e+02 1.5396285844e+02 0.0000000000e+00 0.0000e+00 -1.0000e+00
        6  1    1    2  501    0 +6.7608016544e+01 -4.2550387408e+01 +1.0966109665e+02 2.1985435062e+02 1.7300000000e+02 0.0000e+00 -1.0000e+00
       -6  1    1    2    0  505 -1.5202558848e+02 +8.8183849748e+01 +2.9267088924e+02 3.8271846091e+02 1.7300000000e+02 0.0000e+00 -1.0000e+00
       21  1    1    2  504  503 +6.5943492582e+01 -3.9237165598e+01 +1.2367327499e+01 7.7724192936e+01 0.0000000000e+00 0.0000e+00 -1.0000e+00
       21  1    1    2  505  506 -4.4440003803e+00 +2.6033203449e+01 +3.8556232391e+01 4.6733926406e+01 0.0000000000e+00 0.0000e+00 1.0000e+00
       21  1    1    2  506  504 +2.2918079740e+01 -3.2429500190e+01 +6.0126165464e+00 4.0162948339e+01 0.0000000000e+00 0.0000e+00 -1.0000e+00
<mgrwt>
<rscale>  5 0.21854314E+03</rscale>
<asrwt>0</asrwt>
<pdfrwt beam="1">  1       21 0.94343233E-01 0.21854314E+03</pdfrwt>
<pdfrwt beam="2">  1       21 0.23686594E-01 0.21854314E+03</pdfrwt>
<totfact> 0.15548401E+04</totfact>
</mgrwt>
</event>
<event>
 7      1 +1.2632836e+02 3.23105200e+02 7.54677100e-03 1.14097200e-01
       21 -1    0    0  506  502 +0.0000000000e+00 +0.0000000000e+00 +3.9056224123e+02 3.9056224123e+02 0.0000000000e+00 0.0000e+00 1.0000e+00
       21 -1    0    0  504  503 -0.0000000000e+00 -0.0000000000e+00 -6.9353393241e+02 6.9353393241e+02 0.0000000000e+00 0.0000e+00 -1.0000e+00
        6  1    1    2  501    0 -8.5438461592e+01 -2.6097518810e+01 -2.9425611177e+02 3.5284057380e+02 1.7300000000e+02 0.0000e+00 -1.0000e+00
       -6  1    1    2    0  502 +1.6911914377e+02 +2.5980874038e+02 +3.8195886659e+01 3.5705712726e+02 1.7300000000e+02 0.0000e+00 1.0000e+00
       21  1    1    2  504  501 +3.3552449503e+01 -1.6986882852e+01 -9.1393268760e+01 9.8828389805e+01 0.0000000000e+00 0.0000e+00 1.0000e+00
       21  1    1    2  505  503 -6.9727433259e+01 -2.8581304723e+01 -3.6352676575e+00 7.5445484289e+01 0.0000000000e+00 0.0000e+00 1.0000e+00
       21  1    1    2  506  505 -4.7505698417e+01 -1.8814303399e+02 +4.8117070349e+01 1.9992459849e+02 0.0000000000e+00 0.0000e+00 1.0000e+00
<mgrwt>
<rscale>  5 0.28255024E+03</rscale>
<asrwt>0</asrwt>
<pdfrwt beam="1">  1       21 0.60086499E-01 0.32310516E+03</pdfrwt>
<pdfrwt beam="2">  1       21 0.10669753E+00 0.32310516E+03</pdfrwt>
<totfact> 0.16520268E+03</totfact>
</mgrwt>
</event>
<event>
 7      1 +1.2632836e+02 3.69665400e+02 7.54677100e-03 1.14097200e-01
       21 -1    0    0  503  502 +0.0000000000e+00 +0.0000000000e+00 +1.0351776021e+03 1.0351776021e+03 0.0000000000e+00 0.0000e+00 -1.0000e+00
       21 -1    0    0  505  503 -0.0000000000e+00 -0.0000000000e+00 -3.5332778214e+02 3.5332778214e+02 0.0000000000e+00 0.0000e+00 1.0000e+00
        6  1    1    2  501    0 +1.7491162734e+02 -2.4533417234e+02 +5.2686525782e+02 6.3110928799e+02 1.7300000000e+02 0.0000e+00 -1.0000e+00
       -6  1    1    2    0  506 -3.0056667055e+02 +2.5429174717e+02 +5.2556246764e+01 4.3323870464e+02 1.7300000000e+02 0.0000e+00 1.0000e+00
       21  1    1    2  504  501 +2.3713552632e+01 +3.6230725783e+00 +3.7561338829e+01 4.4568076108e+01 0.0000000000e+00 0.0000e+00 1.0000e+00
       21  1    1    2  505  504 +1.1735138223e+02 +8.0104774948e-01 -7.4323881403e+01 1.3891014339e+02 0.0000000000e+00 0.0000e+00 1.0000e+00
       21  1    1    2  506  502 -1.5409891658e+01 -1.3381695161e+01 +1.3919085794e+02 1.4067917209e+02 0.0000000000e+00 0.0000e+00 -1.0000e+00
<mgrwt>
<rscale>  5 0.36966538E+03</rscale>
<asrwt>0</asrwt>
<pdfrwt beam="1">  1       21 0.15925809E+00 0.36966538E+03</pdfrwt>
<pdfrwt beam="2">  1       21 0.54358121E-01 0.36966538E+03</pdfrwt>
<totfact> 0.70997405E+02</totfact>
</mgrwt>
</event>
<event>
 7      1 +1.2632836e+02 2.39286400e+02 7.54677100e-03 1.17219800e-01
       21 -1    0    0  503  502 +0.0000000000e+00 +0.0000000000e+00 +1.3250457951e+03 1.3250457951e+03 0.0000000000e+00 0.0000e+00 1.0000e+00
       21 -1    0    0  501  503 -0.0000000000e+00 -0.0000000000e+00 -9.5098885838e+01 9.5098885838e+01 0.0000000000e+00 0.0000e+00 -1.0000e+00
        6  1    1    2  501    0 -1.1531081414e+02 -7.7182624721e+01 +5.3134166594e+02 5.7576619160e+02 1.7300000000e+02 0.0000e+00 -1.0000e+00
       -6  1    1    2    0  504 +1.4095052200e+02 +7.3392779376e+01 +1.5985537039e+02 2.8414131899e+02 1.7300000000e+02 0.0000e+00 -1.0000e+00
       21  1    1    2  504  506 +2.0493122567e+01 +3.6608652501e+01 +4.1769643420e+01 5.9201897114e+01 0.0000000000e+00 0.0000e+00 1.0000e+00
       21  1    1    2  505  502 -2.1852885345e+01 +9.5660135763e-01 +1.5553287421e+02 1.5706348603e+02 0.0000000000e+00 0.0000e+00 1.0000e+00
       21  1    1    2  506  505 -2.4279945079e+01 -3.3775408514e+01 +3.4144735534e+02 3.4397178725e+02 0.0000000000e+00 0.0000e+00 -1.0000e+00
<mgrwt>
<rscale>  5 0.23928645E+03</rscale>
<asrwt>0</asrwt>
<pdfrwt beam="1">  1       21 0.20385319E+00 0.23928645E+03</pdfrwt>
<pdfrwt beam="2">  1       21 0.14630599E-01 0.23928645E+03</pdfrwt>
<totfact> 0.50039219E+03</totfact>
</mgrwt>
</event>
<event>
 7      1 +1.2632836e+02 2.55349500e+02 7.54677100e-03 1.11674500e-01
       21 -1    0    0  504  502 +0.0000000000e+00 +0.0000000000e+00 +9.9686015710e+01 9.9686015710e+01 0.0000000000e+00 0.0000e+00 -1.0000e+00
       21 -1    0    0  505  503 -0.0000000000e+00 -0.0000000000e+00 -1.2636869079e+03 1.2636869079e+03 0.0000000000e+00 0.0000e+00 -1.0000e+00
        6  1    1    2  501    0 +1.0815973020e+02 -1.7838409908e+02 -6.7548171156e+02 7.2782137691e+02 1.7300000000e+02 0.0000e+00 -1.0000e+00
       -6  1    1    2    0  503 -1.0149845276e+02 +1.0893108265e+02 -2.1742833602e+02 3.1523324378e+02 1.7300000000e+02 0.0000e+00 -1.0000e+00
       21  1    1    2  504  506 -2.6232897402e+00 +2.0877722020e+01 -7.4051503080e+01 7.6983024325e+01 0.0000000000e+00 0.0000e+00 -1.0000e+00
       21  1    1    2  505  502 -4.5524691847e+01 +4.8673577175e+01 -3.3453016067e+01 7.4570228421e+01 0.0000000000e+00 0.0000e+00 -1.0000e+00
       21  1    1    2  506  501 +4.1486704148e+01 -9.8282769208e-02 -1.6358632551e+02 1.6876505022e+02 0.0000000000e+00 0.0000e+00 -1.0000e+00
<mgrwt>
<rscale>  5 0.25534948E+03</rscale>
<asrwt>0</asrwt>
<pdfrwt beam="1">  1       21 0.15336310E-01 0.25534948E+03</pdfrwt>
<pdfrwt beam="2">  1       21 0.19441338E+00 0.25534948E+03</pdfrwt>
<totfact> 0.52269170E+03</totfact>
</mgrwt>
</event>
<event>
 7      1 +1.2632836e+02 1.85111500e+02 7.54677100e-03 1.15393800e-01
       21 -1    0    0  505  502 +0.0000000000e+00 +0.0000000000e+00 +3.1596411596e+03 3.1596411596e+03 0.0000000000e+00 0.0000e+00 1.0000e+00
       21 -1    0    0  502  503 -0.0000000000e+00 -0.0000000000e+00 -1.7050153725e+02 1.7050153725e+02 0.0000000000e+00 0.0000e+00 1.0000e+00
        6  1    1    2  501    0 +7.0771961218e+01 -3.0368607812e+01 +5.0643860906e+02 5.4068473955e+02 1.7300000000e+02 0.0000e+00 -1.0000e+00
       -6  1    1    2    0  504 -5.0012068071e+01 -2.8972659897e+01 +3.3928546898e+02 3.8520676452e+02 1.7300000000e+02 0.0000e+00 1.0000e+00
       21  1    1    2  504  506 -3.4669814819e+01 -9.8263242606e+00 +1.9259977670e+01 4.0859508659e+01 0.0000000000e+00 0.0000e+00 1.0000e+00
       21  1    1    2  505  501 +3.6224358409e+01 +9.7353565186e+00 +2.2351822721e+03 2.2354969852e+03 0.0000000000e+00 0.0000e+00 1.0000e+00
       21  1    1    2  506  503 -2.2314436738e+01 +5.9432235451e+01 -1.1102670544e+02 1.2789469894e+02 0.0000000000e+00 0.0000e+00 1.0000e+00
<mgrwt>
<rscale>  5 0.18511147E+03</rscale>
<asrwt>0</asrwt>
<pdfrwt beam="1">  1       21 0.48609860E+00 0.18511147E+03</pdfrwt>
<pdfrwt beam="2">  1       21 0.26231008E-01 0.18511147E+03</pdfrwt>
<totfact> 0.33237418E+01</totfact>
</mgrwt>
</event>
<event>
 7      1 +1.2632836e+02 2.04135700e+02 7.54677100e-03 1.04562400e-01
       21 -1    0    0  501  502 +0.0000000000e+00 +0.0000000000e+00 +1.5294217178e+03 1.5294217178e+03 0.0000000000e+00 0.0000e+00 -1.0000e+00
       21 -1    0    0  505  503 -0.0000000000e+00 -0.0000000000e+00 -7.5134504664e+02 7.5134504664e+02 0.0000000000e+00 0.0000e+00 -1.0000e+00
        6  1    1    2  501    0 +4.5640974274e+01 -8.9651080155e+01 +1.3300648175e+03 1.3450359971e+03 1.7300000000e+02 0.0000e+00 -1.0000e+00
       -6  1    1    2    0  503 -8.7254618284e+01 +2.7931951629e+02 -8.2919720675e+00 3.4004487556e+02 1.7300000000e+02 0.0000e+00 -1.0000e+00
       21  1    1    2  504  506 +1.3528025380e+01 -1.7028018050e+01 -3.7215033527e+01 4.3103591380e+01 0.0000000000e+00 0.0000e+00 -1.0000e+00
       21  1    1    2  505  504 +4.6463017752e+01 -8.2735813079e+01 -4.0412056061e+02 4.1511137576e+02 0.0000000000e+00 0.0000e+00 -1.0000e+00
       21  1    1    2  506  502 -1.8377399122e+01 -8.9904605003e+01 -1.0236058005e+02 1.3747092474e+02 0.0000000000e+00 0.0000e+00 -1.0000e+00
<mgrwt>
<rscale>  5 0.20413567E+03</rscale>
<asrwt>0</asrwt>
<pdfrwt beam="1">  1       21 0.23529565E+00 0.20413567E+03</pdfrwt>
<pdfrwt beam="2">  1       21 0.11559155E+00 0.20413567E+03</pdfrwt>
<totfact> 0.46206496E+01</totfact>
</mgrwt>
</event>
<event>
 7      1 +1.2632836e+02 1.84757800e+02 7.54677100e-03 1.17258800e-01
       21 -1    0    0  503  502 +0.0000000000e+00 +0.0000000000e+00 +5.4304930017e+01 5.4304930017e+01 0.0000000000e+00 0.0000e+00 -1.0000e+00
       21 -1    0    0  501  503 -0.0000000000e+00 -0.0000000000e+00 -1.4162594350e+03 1.4162594350e+03 0.0000000000e+00 0.0000e+00 -1.0000e+00
        6  1    1    2  501    0 -1.1106771880e+02 -5.9861778417e+01 -5.0499720553e+02 5.4851677118e+02 1.7300000000e+02 0.0000e+00 1.0000e+00
       -6  1    1    2    0  506 +3.7343036603e+01 -2.0569746774e+01 -6.2182744413e+02 6.4685082294e+02 1.7300000000e+02 0.0000e+00 -1.0000e+00
       21  1    1    2  504  505 +1.6628597802e+01 +1.2605032225e+01 -5.9400884214e+01 6.2959210189e+01 0.0000000000e+00 0.0000e+00 -1.0000e+00
       21  1    1    2  505  502 +5.6346664655e+01 +5.8815984068e+00 -7.5166417093e+01 9.4125076766e+01 0.0000000000e+00 0.0000e+00 -1.0000e+00
       21  1    1    2  506  504 +7.4941973918e-01 +6.1944894559e+01 -1.0056255400e+02 1.1811248392e+02 0.0000000000e+00 0.0000e+00 -1.0000e+00
<mgrwt>
<rscale>  5 0.18475779E+03</rscale>
<asrwt>0</asrwt>
<pdfrwt beam="1">  1       21 0.83546059E-02 0.18475779E+03</pdfrwt>
<pdfrwt beam="2">  1       21 0.21788603E+00 0.18475779E+03</pdfrwt>
<totfact> 0.11612866E+04</totfact>
</mgrwt>
</event>
<event>
 7      1 +1.2632836e+02 1.81588400e+02 7.54677100e-03 1.17264400e-01
       21 -1    0    0  504  502 +0.0000000000e+00 +0.0000000000e+00 +7.7994039477e+02 7.7994039477e+02 0.0000000000e+00 0.0000e+00 1.0000e+00
       21 -1    0    0  501  503 -0.0000000000e+00 -0.0000000000e+00 -1.6748218505e+03 1.6748218505e+03 0.0000000000e+00 0.0000e+00 -1.0000e+00
        6  1    1    2  501    0 -8.3802049796e+01 +3.1155161273e+01 +6.6800122206e+02 6.9580748796e+02 1.7300000000e+02 0.0000e+00 1.0000e+00
       -6  1    1    2    0  506 -4.0383091681e+01 +5.2219724642e+01 -7.8033997707e+01 2.0093779767e+02 1.7300000000e+02 0.0000e+00 -1.0000e+00
       21  1    1    2  504  505 -6.6727145524e+01 +1.8271884224e+01 -2.7343711118e+02 2.8205358972e+02 0.0000000000e+00 0.0000e+00 -1.0000e+00
       21  1    1    2  505  503 +1.6941614708e+02 -9.3893854816e+01 -1.2308287202e+03 1.2459764145e+03 0.0000000000e+00 0.0000e+00 -1.0000e+00
       21  1    1    2  506  502 +2.1496139922e+01 -7.7529153237e+00 +1.9417151368e+01 2.9986955411e+01 0.0000000000e+00 0.0000e+00 1.0000e+00
<mgrwt>
<rscale>  5 0.18158844E+03</rscale>
<asrwt>0</asrwt>
<pdfrwt beam="1">  1       21 0.11999083E+00 0.18158844E+03</pdfrwt>
<pdfrwt beam="2">  1       21 0.25766490E+00 0.18158844E+03</pdfrwt>
<totfact> 0.32307183E+01</totfact>
</mgrwt>
</event>
<event>
 7      1 +1.2632836e+02 2.10078400e+02 7.54677100e-03 1.07609100e-01
       21 -1    0    0  505  502 +0.0000000000e+00 +0.0000000000e+00 +4.5855243896e+02 4.5855243896e+02 0.0000000000e+00 0.0000e+00 -1.0000e+00
       21 -1    0    0  504  503 -0.0000000000e+00 -0.0000000000e+00 -7.1275828262e+02 7.1275828262e+02 0.0000000000e+00 0.0000e+00 -1.0000e+00
        6  1    1    2  501    0 -1.5777221468e+02 +8.9901784079e+01 -1.9162657238e+02 3.1563292881e+02 1.7300000000e+02 0.0000e+00 1.0000e+00
       -6  1    1    2    0  503 +8.4623033493e+01 +3.6743742518e+00 -3.7818495551e+02 4.2441420735e+02 1.7300000000e+02 0.0000e+00 -1.0000e+00
       21  1    1    2  504  506 +1.5059733372e+01 -3.5858717270e+01 -3.4457035816e+01 5.1960855369e+01 0.0000000000e+00 0.0000e+00 -1.0000e+00
       21  1    1    2  505  501 -3.5446570541e+01 -3.4732357488e+01 +1.2545214841e+02 1.3491122104e+02 0.0000000000e+00 0.0000e+00 1.0000e+00
       21  1    1    2  506  502 +9.3536018353e+01 -2.2985083572e+01 +2.2461057163e+02 2.4439150903e+02 0.0000000000e+00 0.0000e+00 -1.0000e+00
<mgrwt>
<rscale>  5 0.21007842E+03</rscale>
<asrwt>0</asrwt>
<pdfrwt beam="1">  1       21 0.70546529E-01 0.21007842E+03</pdfrwt>
<pdfrwt beam="2">  1       21 0.10965512E+00 0.21007842E+03</pdfrwt>
<totfact> 0.11786124E+03</totfact>
</mgrwt>
</event>
<event>
 7      1 +1.2632836e+02 2.04778700e+02 7.54677100e-03 1.11090800e-01
       21 -1    0    0  501  502 +0.0000000000e+00 +0.0000000000e+00 +6.6368487052e+02 6.6368487052e+02 0.0000000000e+00 0.0000e+00 1.0000e+00
       21 -1    0    0  505  503 -0.0000000000e+00 -0.0000000000e+00 -2.5688207011e+02 2.5688207011e+02 0.0000000000e+00 0.0000e+00 -1.0000e+00
        6  1    1    2  501    0 -7.5774145804e+01 -4.9584769350e+01 +1.7553127013e+02 2.6256541531e+02 1.7300000000e+02 0.0000e+00 -1.0000e+00
       -6  1    1    2    0  504 +7.3740338131e+01 +1.0321924327e+02 +3.2006911974e+02 3.8531168041e+02 1.7300000000e+02 0.0000e+00 1.0000e+00
       21  1    1    2  504  503 -8.0272188919e+00 -4.4376783452e+01 +5.0828506309e+00 4.5382491373e+01 0.0000000000e+00 0.0000e+00 1.0000e+00
       21  1    1    2  505  506 +1.0152970880e+02 +3.2157878193e+01 -4.4686778341e+01 1.1549596988e+02 0.0000000000e+00 0.0000e+00 -1.0000e+00
       21  1    1    2  506  502 -9.1468682236e+01 -4.1415568665e+01 -4.9193661753e+01 1.1181138365e+02 0.0000000000e+00 0.0000e+00 -1.0000e+00
<mgrwt>
<rscale>  5 0.20477870E+03</rscale>
<asrwt>0</asrwt>
<pdfrwt beam="1">  1       21 0.10210536E+00 0.20477870E+03</pdfrwt>
<pdfrwt beam="2">  1       21 0.39520319E-01 0.20477870E+03</pdfrwt>
<totfact> 0.47753696E+03</totfact>
</mgrwt>
</event>
<event>
 7      1 +1.2632836e+02 3.04681500e+02 7.54677100e-03 1.02039800e-01
       21 -1    0    0  503  502 +0.0000000000e+00 +0.0000000000e+00 +1.7060301065e+02 1.7060301065e+02 0.0000000000e+00 0.0000e+00 1.0000e+00
       21 -1    0    0  505  503 -0.0000000000e+00 -0.0000000000e+00 -1.5007617872e+03 1.5007617872e+03 0.0000000000e+00 0.0000e+00 1.0000e+00
        6  1    1    2  501    0 +2.1222136580e+02 +2.6298349772e+01 -8.0750646667e+02 8.5306811277e+02 1.7300000000e+02 0.0000e+00 1.0000e+00
       -6  1    1    2    0  506 -3.1232743116e+02 -6.4442516801e+01 -3.1542498412e+02 4.8075272525e+02 1.7300000000e+02 0.0000e+00 1.0000e+00
       21  1    1    2  504  501 +7.7518415395e+01 +8.1112907930e+01 -1.6384305827e+02 1.9857733079e+02 0.0000000000e+00 0.0000e+00 1.0000e+00
       21  1    1    2  505  504 +3.0953754310e+01 -1.9538045101e+01 -8.3834662902e+01 9.1477433371e+01 0.0000000000e+00 0.0000e+00 1.0000e+00
       21  1    1    2  506  502 -8.3661043413e+00 -2.3430695801e+01 +4.0450395462e+01 4.7489195620e+01 0.0000000000e+00 0.0000e+00 1.0000e+00
<mgrwt>
<rscale>  5 0.30468153E+03</rscale>
<asrwt>0</asrwt>
<pdfrwt beam="1">  1       21 0.26246617E-01 0.30468153E+03</pdfrwt>
<pdfrwt beam="2">  1       21 0.23088643E+00 0.30468153E+03</pdfrwt>
<totfact> 0.10738096E+03</totfact>
</mgrwt>
</event>
<event>
 7      1 +1.2632836e+02 3.95809500e+02 7.54677100e-03 1.17063200e-01
       21 -1    0    0  505  502 +0.0000000000e+00 +0.0000000000e+00 +8.6180435197e+02 8.6180435197e+02 0.0000000000e+00 0.0000e+00 -1.0000e+00
       21 -1    0    0  501  503 -0.0000000000e+00 -0.0000000000e+00 -7.8824954418e+02 7.8824954418e+02 0.0000000000e+00 0.0000e+00 -1.0000e+00
        6  1    1    2  501    0 -1.6165930212e+02 -5.4597449046e+01 +2.6047210763e+01 2.4438099066e+02 1.7300000000e+02 0.0000e+00 -1.0000e+00
       -6  1    1    2    0  502 -4.3379994013e+00 -2.9736649069e+02 +2.7628781067e+02 4.4125911021e+02 1.7300000000e+02 0.0000e+00 1.0000e+00
       21  1    1    2  504  503 +9.7656518186e+01 +3.5336380976e+02 -5.3600600475e+02 6.4938833892e+02 0.0000000000e+00 0.0000e+00 -1.0000e+00
       21  1    1    2  505  506 +4.8368176772e+01 +3.8563030160e+00 +2.3175092352e+02 2.3677593237e+02 0.0000000000e+00 0.0000e+00 -1.0000e+00
       21  1    1    2  506  504 +1.9972606567e+01 -5.2561730484e+00 +7.5474867597e+01 7.8249524005e+01 0.0000000000e+00 0.0000e+00 -1.0000e+00
<mgrwt>
<rscale>  5 0.34641841E+03</rscale>
<asrwt>0</asrwt>
<pdfrwt beam="1">  1       21 0.13258529E+00 0.39580954E+03</pdfrwt>
<pdfrwt beam="2">  1       21 0.12126916E+00 0.39580954E+03</pdfrwt>
<totfact> 0.17757659E+02</totfact>
</mgrwt>
</event>
<event>
 7      1 +1.2632836e+02 1.95417600e+02 7.54677100e-03 1.04217400e-01
       21 -1    0    0  504  502 +0.0000000000e+00 +0.0000000000e+00 +3.1588160236e+02 3.1588160236e+02 0.0000000000e+00 0.0000e+00 -1.0000e+00
       21 -1    0    0  501  503 -0.0000000000e+00 -0.0000000000e+00 -1.0267021904e+03 1.0267021904e+03 0.0000000000e+00 0.0000e+00 1.0000e+00
        6  1    1    2  501    0 -5.9720196732e+01 -6.7453420739e+01 -8.7802085688e+02 8.9942542269e+02 1.7300000000e+02 0.0000e+00 1.0000e+00
       -6  1    1    2    0  502 -2.7465370021e+01 +1.4811447480e+02 +1.4670647718e-01 2.2939325561e+02 1.7300000000e+02 0.0000e+00 -1.0000e+00
       21  1    1    2  504  506 +3.7044698928e+01 -1.5180289847e+01 +8.8547886786e+01 9.7177565172e+01 0.0000000000e+00 0.0000e+00 -1.0000e+00
       21  1    1    2  505  503 +2.5542732620e+01 -5.1695654336e+01 +5.7447067269e+01 8.1394332756e+01 0.0000000000e+00 0.0000e+00 -1.0000e+00
       21  1    1    2  506  505 +2.4598135205e+01 -1.3785109879e+01 +2.1058608276e+01 3.5193216569e+01 0.0000000000e+00 0.0000e+00 1.0000e+00
<mgrwt>
<rscale>  5 0.19541761E+03</rscale>
<asrwt>0</asrwt>
<pdfrwt beam="1">  1       21 0.48597170E-01 0.19541761E+03</pdfrwt>
<pdfrwt beam="2">  1       21 0.15795418E+00 0.19541761E+03</pdfrwt>
<totfact> 0.10504008E+03</totfact>
</mgrwt>
</event>
<event>
 7      1 +1.2632836e+02 2.05933100e+02 7.54677100e-03 1.09491200e-01
       21 -1    0    0  506  502 +0.0000000000e+00 +0.0000000000e+00 +1.6409032979e+02 1.6409032979e+02 0.0000000000e+00 0.0000e+00 1.0000e+00
       21 -1    0    0  504  503 -0.0000000000e+00 -0.0000000000e+00 -1.1850575809e+03 1.1850575809e+03 0.0000000000e+00 0.0000e+00 1.0000e+00
        6  1    1    2  501    0 +1.1722907497e+02 +1.3564197903e+01 -4.2998558775e+02 4.7827110424e+02 1.7300000000e+02 0.0000e+00 -1.0000e+00
       -6  1    1    2    0  503 -1.0508484701e+02 -2.1463998558e+01 -5.6530976726e+02 6.0083913093e+02 1.7300000000e+02 0.0000e+00 1.0000e+00
       21  1    1    2  504  502 -5.5538589137e+01 +1.0897580133e+02 +6.6651063337e+00 1.2249360719e+02 0.0000000000e+00 0.0000e+00 1.0000e+00
       21  1    1    2  505  501 +4.8619959324e+00 -1.0300878762e+02 -3.4923807299e+01 1.0887663499e+02 0.0000000000e+00 0.0000e+00 1.0000e+00
       21  1    1    2  506  505 +3.8532365251e+01 +1.9327869436e+00 +2.5868049151e+00 3.8667433286e+01 0.0000000000e+00 0.0000e+00 1.0000e+00
<mgrwt>
<rscale>  5 0.20593309E+03</rscale>
<asrwt>0</asrwt>
<pdfrwt beam="1">  1       21 0.25244666E-01 0.20593309E+03</pdfrwt>
<pdfrwt beam="2">  1       21 0.18231655E+00 0.20593309E+03</pdfrwt>
<totfact> 0.25761710E+03</totfact>
</mgrwt>
</event>
<event>
 7      1 +1.2632836e+02 1.91247900e+02 7.54677100e-03 1.17264400e-01
       21 -1    0    0  506  502 +0.0000000000e+00 +0.0000000000e+00 +2.4969825087e+03 2.4969825087e+03 0.0000000000e+00 0.0000e+00 -1.0000e+00
       21 -1    0    0  505  503 -0.0000000000e+00 -0.0000000000e+00 -7.5646091603e+01 7.5646091603e+01 0.0000000000e+00 0.0000e+00 -1.0000e+00
        6  1    1    2  501    0 -1.7816909565e+01 +8.9218968942e+01 +1.1383373011e+03 1.1549970899e+03 1.7300000000e+02 0.0000e+00 -1.0000e+00
       -6  1    1    2    0  502 +1.7477575178e+01 +8.8128715258e+00 +2.3217321091e+02 2.9020084804e+02 1.7300000000e+02 0.0000e+00 1.0000e+00
       21  1    1    2  504  501 +1.5977125712e+01 -3.1222186390e+01 +2.1346335880e+01 4.1058001954e+01 0.0000000000e+00 0.0000e+00 -1.0000e+00
       21  1    1    2  505  504 +6.0395241606e+00 -8.7256980119e+01 +3.9545399342e+01 9.5990077824e+01 0.0000000000e+00 0.0000e+00 -1.0000e+00
       21  1    1    2  506  503 -2.1677315485e+01 +2.0447326041e+01 +9.8993416984e+02 9.9038258252e+02 0.0000000000e+00 0.0000e+00 -1.0000e+00
<mgrwt>
<rscale>  5 0.19124785E+03</rscale>
<asrwt>0</asrwt>
<pdfrwt beam="1">  1       21 0.38415109E+00 0.19124785E+03</pdfrwt>
<pdfrwt beam="2">  1       21 0.11637862E-01 0.19124785E+03</pdfrwt>
<totfact> 0.67771674E+02</totfact>
</mgrwt>
</event>
<event>
 7      1 +1.2632836e+02 4.02157000e+02 7.54677100e-03 1.17149000e-01
       21 -1    0    0  503  502 +0.0000000000e+00 +0.0000000000e+00 +2.3871848015e+03 2.3871848015e+03 0.0000000000e+00 0.0000e+00 1.0000e+00
       21 -1    0    0  504  503 -0.0000000000e+00 -0.0000000000e+00 -1.8941793420e+02 1.8941793420e+02 0.0000000000e+00 0.0000e+00 -1.0000e+00
        6  1    1    2  501    0 -3.4770097727e+02 +2.2138630192e+01 +6.7823636821e+02 7.8186933672e+02 1.7300000000e+02 0.0000e+00 1.0000e+00
       -6  1    1    2    0  506 +3.2985307801e+02 -2.3145248107e+02 +3.6575698800e+02 5.7103456843e+02 1.7300000000e+02 0.0000e+00 -1.0000e+00
       21  1    1    2  504  505 +1.8892074306e+01 +1.9752823889e+02 +3.3771454699e+02 3.9169558445e+02 0.0000000000e+00 0.0000e+00 -1.0000e+00
       21  1    1    2  505  501 -2.6980737930e+01 +7.0330103208e+00 +1.7308778459e+01 3.2817941209e+01 0.0000000000e+00 0.0000e+00 -1.0000e+00
       21  1    1    2  506  502 +2.5936562884e+01 +4.7526016660e+00 +7.9875018561e+02 7.9918530488e+02 0.0000000000e+00 0.0000e+00 1.0000e+00
<mgrwt>
<rscale>  5 0.40215696E+03</rscale>
<asrwt>0</asrwt>
<pdfrwt beam="1">  1       21 0.36725918E+00 0.40215696E+03</pdfrwt>
<pdfrwt beam="2">  1       21 0.29141222E-01 0.40215696E+03</pdfrwt>
<totfact> 0.12254929E+02</totfact>
</mgrwt>
</event>
<event>
 7      1 +1.2632836e+02 2.07747300e+02 7.54677100e-03 1.04217400e-01
       21 -1    0    0  504  502 +0.0000000000e+00 +0.0000000000e+00 +7.8792870462e+02 7.8792870462e+02 0.0000000000e+00 0.0000e+00 -1.0000e+00
       21 -1    0    0  501  503 -0.0000000000e+00 -0.0000000000e+00 -2.1767143625e+02 2.1767143625e+02 0.0000000000e+00 0.0000e+00 -1.0000e+00
        6  1    1    2  501    0 -8.8946401814e+01 +6.0312628923e+01 -1.0049620090e+02 2.2710693957e+02 1.7300000000e+02 0.0000e+00 1.0000e+00
       -6  1    1    2    0  506 +1.1492063583e+02 -9.5969444365e+01 +2.4023468717e+02 3.3175079761e+02 1.7300000000e+02 0.0000e+00 1.0000e+00
       21  1    1    2  504  503 -3.5275133771e+01 -1.1600871871e+01 +3.4265065530e+02 3.4465691182e+02 0.0000000000e+00 0.0000e+00 -1.0000e+00
       21  1    1    2  505  502 +7.2801432310e+00 +2.6888199700e+01 +6.8322252695e+01 7.3782829858e+01 0.0000000000e+00 0.0000e+00 1.0000e+00
       21  1    1    2  506  505 +2.0207565266e+00 +2.0369487614e+01 +1.9545874105e+01 2.8302662015e+01 0.0000000000e+00 0.0000e+00 1.0000e+00
<mgrwt>
<rscale>  5 0.20774729E+03</rscale>
<asrwt>0</asrwt>
<pdfrwt beam="1">  1       21 0.12121980E+00 0.20774729E+03</pdfrwt>
<pdfrwt beam="2">  1       21 0.33487914E-01 0.20774729E+03</pdfrwt>
<totfact> 0.43688805E+03</totfact>
</mgrwt>
</event>
<event>
 7      1 +1.2632836e+02 1.84367100e+02 7.54677100e-03 1.16780200e-01
       21 -1    0    0  506  502 +0.0000000000e+00 +0.0000000000e+00 +9.2455301333e+02 9.2455301333e+02 0.0000000000e+00 0.0000e+00 -1.0000e+00
       21 -1    0    0  502  503 -0.0000000000e+00 -0.0000000000e+00 -5.6527735266e+02 5.6527735266e+02 0.0000000000e+00 0.0000e+00 -1.0000e+00
        6  1    1    2  501    0 -4.5104835754e+01 -7.2941969190e+01 -4.4333131158e+02 4.8355623138e+02 1.7300000000e+02 0.0000e+00 -1.0000e+00
       -6  1    1    2    0  503 -6.4493334699e+01 -1.2432389198e+02 +1.1893341438e+02 2.5236873300e+02 1.7300000000e+02 0.0000e+00 -1.0000e+00
       21  1    1    2  504  501 +1.4429257516e+02 +7.4368711509e+01 +2.2732865553e+02 2.7933737688e+02 0.0000000000e+00 0.0000e+00 -1.0000e+00
       21  1    1    2  505  504 -1.0799909995e+01 +4.5166462355e+01 +1.2377634823e+02 1.3220148168e+02 0.0000000000e+00 0.0000e+00 1.0000e+00
       21  1    1    2  506  505 -2.3894494712e+01 +7.7730687306e+01 +3.3256855411e+02 3.4236654306e+02 0.0000000000e+00 0.0000e+00 -1.0000e+00
<mgrwt>
<rscale>  5 0.18436709E+03</rscale>
<asrwt>0</asrwt>
<pdfrwt beam="1">  1       21 0.14223892E+00 0.18436709E+03</pdfrwt>
<pdfrwt beam="2">  1       21 0.86965747E-01 0.18436709E+03</pdfrwt>
<totfact> 0.39438584E+02</totfact>
</mgrwt>
</event>
<event>
 7      1 +1.2632836e+02 2.56644200e+02 7.54677100e-03 1.13539700e-01
       21 -1    0    0  504  502 +0.0000000000e+00 +0.0000000000e+00 +1.9857058005e+02 1.9857058005e+02 0.0000000000e+00 0.0000e+00 -1.0000e+00
       21 -1    0    0  505  503 -0.0000000000e+00 -0.0000000000e+00 -1.4397145891e+03 1.4397145891e+03 0.0000000000e+00 0.0000e+00 -1.0000e+00
        6  1    1    2  501    0 +9.2696137179e+01 -2.6414108379e+01 -8.3449658388e+02 8.5767349702e+02 1.7300000000e+02 0.0000e+00 -1.0000e+00
       -6  1    1    2    0  503 +8.6632195076e+01 +1.0352764003e+02 -3.7731429896e+02 4.3648389395e+02 1.7300000000e+02 0.0000e+00 1.0000e+00
       21  1    1    2  504  501 +2.7244511632e+01 -1.5609310770e+01 +5.2924033489e+01 6.1537527717e+01 0.0000000000e+00 0.0000e+00 1.0000e+00
       21  1    1    2  505  506 -2.2699666703e+02 -7.1744434577e+01 -9.5128018806e+01 2.5636710143e+02 0.0000000000e+00 0.0000e+00 -1.0000e+00
       21  1    1    2  506  502 +2.0423823141e+01 +1.0240213694e+01 +1.2870859155e+01 2.6223149002e+01 0.0000000000e+00 0.0000e+00 -1.0000e+00
<mgrwt>
<rscale>  5 0.24121397E+03</rscale>
<asrwt>0</asrwt>
<pdfrwt beam="1">  1       21 0.30549319E-01 0.25664423E+03</pdfrwt>
<pdfrwt beam="2">  1       21 0.22149456E+00 0.25664423E+03</pdfrwt>
<totfact> 0.94865464E+02</totfact>
</mgrwt>
</event>
<event>
 7      1 +1.2632836e+02 2.00267200e+02 7.54677100e-03 1.14097200e-01
       21 -1    0    0  506  502 +0.0000000000e+00 +0.0000000000e+00 +7.0134236921e+02 7.0134236921e+02 0.0000000000e+00 0.0000e+00 -1.0000e+00
       21 -1    0    0  505  503 -0.0000000000e+00 -0.0000000000e+00 -2.1844173555e+03 2.1844173555e+03 0.0000000000e+00 0.0000e+00 1.0000e+00
        6  1    1    2  501    0 -8.0609158688e+01 +9.4863874647e+00 -7.8439717593e+02 8.0733868829e+02 1.7300000000e+02 0.0000e+00 1.0000e+00
       -6  1    1    2    0  502 +1.5670813286e+02 +2.2046244791e+01 -7.3513606923e+02 7.7162005942e+02 1.7300000000e+02 0.0000e+00 1.0000e+00
       21  1    1    2  504  501 -8.6112101480e+01 -3.4458527420e+01 +1.8685542845e+01 9.4614130259e+01 0.0000000000e+00 0.0000e+00 -1.0000e+00
       21  1    1    2  505  504 +4.0129849284e+01 +5.0370027983e+00 -5.9615093559e+02 5.9752130858e+02 0.0000000000e+00 0.0000e+00 1.0000e+00
       21  1    1    2  506  503 -3.0116721971e+01 -2.1111076344e+00 +6.1392365164e+02 6.1466553813e+02 0.0000000000e+00 0.0000e+00 -1.0000e+00
<mgrwt>
<rscale>  5 0.20026720E+03</rscale>
<asrwt>0</asrwt>
<pdfrwt beam="1">  1       21 0.10789883E+00 0.20026720E+03</pdfrwt>
<pdfrwt beam="2">  1       21 0.33606420E+00 0.20026720E+03</pdfrwt>
<totfact> 0.14232230E+01</totfact>
</mgrwt>
</event>
<event>
 7      1 +1.2632836e+02 2.07624000e+02 7.54677100e-03 1.12326900e-01
       21 -1    0    0  504  502 +0.0000000000e+00 +0.0000000000e+00 +2.7206957681e+02 2.7206957681e+02 0.0000000000e+00 0.0000e+00 1.0000e+00
       21 -1    0    0  505  503 -0.0000000000e+00 -0.0000000000e+00 -7.2890850189e+02 7.2890850189e+02 0.0000000000e+00 0.0000e+00 1.0000e+00
        6  1    1    2  501    0 +1.2166235900e+02 -3.4845907299e+01 +1.3582956082e+02 2.5376098291e+02 1.7300000000e+02 0.0000e+00 1.0000e+00
       -6  1    1    2    0  502 -9.1873144264e+01 -5.9425055978e+00 -6.3274764592e+01 2.0593368798e+02 1.7300000000e+02 0.0000e+00 1.0000e+00
       21  1    1    2  504  506 -6.3311317623e+00 +3.3103962823e+01 -1.4710370908e+02 1.5091539619e+02 0.0000000000e+00 0.0000e+00 1.0000e+00
       21  1    1    2  505  501 -3.7984925835e+01 -1.2166425522e+01 -3.3196849491e+02 3.3435603496e+02 0.0000000000e+00 0.0000e+00 1.0000e+00
       21  1    1    2  506  503 +1.4526842860e+01 +1.9850875596e+01 -5.0321517311e+01 5.6011976664e+01 0.0000000000e+00 0.0000e+00 1.0000e+00
<mgrwt>
<rscale>  5 0.20762401E+03</rscale>
<asrwt>0</asrwt>
<pdfrwt beam="1">  1       21 0.41856858E-01 0.20762401E+03</pdfrwt>
<pdfrwt beam="2">  1       21 0.11213977E+00 0.20762401E+03</pdfrwt>
<totfact> 0.33818143E+03</totfact>
</mgrwt>
</event>
<event>
 7      1 +1.2632836e+02 2.00305000e+02 7.54677100e-03 1.03361700e-01
       21 -1    0    0  501  502 +0.0000000000e+00 +0.0000000000e+00 +9.4327585470e+01 9.4327585470e+01 0.0000000000e+00 0.0000e+00 -1.0000e+00
       21 -1    0    0  502  503 -0.0000000000e+00 -0.0000000000e+00 -2.7416027534e+03 2.7416027534e+03 0.0000000000e+00 0.0000e+00 1.0000e+00
        6  1    1    2  501    0 +1.1648394601e+02 +1.0545630987e+02 -3.3763631150e+02 4.1062978680e+02 1.7300000000e+02 0.0000e+00 -1.0000e+00
       -6  1    1    2    0  504 -7.5619543850e-01 -8.3206458613e+01 -1.7249868163e+02 2.5808657801e+02 1.7300000000e+02 0.0000e+00 -1.0000e+00
       21  1    1    2  504  505 -1.0005589031e+02 -7.7773826380e+01 -2.6355027826e+02 2.9243580223e+02 0.0000000000e+00 0.0000e+00 1.0000e+00
       21  1    1    2  505  506 -1.1317422612e+00 +3.5123498139e+01 -1.4647314776e+03 1.4651529758e+03 0.0000000000e+00 0.0000e+00 1.0000e+00
       21  1    1    2  506  503 -1.4540118003e+01 +2.0400476982e+01 -4.0885841894e+02 4.0962519604e+02 0.0000000000e+00 0.0000e+00 1.0000e+00
<mgrwt>
<rscale>  5 0.20030499E+03</rscale>
<asrwt>0</asrwt>
<pdfrwt beam="1">  1       21 0.14511934E-01 0.20030499E+03</pdfrwt>
<pdfrwt beam="2">  1       21 0.42178509E+00 0.20030499E+03</pdfrwt>
<totfact> 0.26114421E+02</totfact>
</mgrwt>
</event>
<event>
 7      1 +1.2632836e+02 2.77817400e+02 7.54677100e-03 1.04217400e-01
       21 -1    0    0  505  502 +0.0000000000e+00 +0.0000000000e+00 +2.2036352303e+03 2.2036352303e+03 0.0000000000e+00 0.0000e+00 -1.0000e+00
       21 -1    0    0  501  503 -0.0000000000e+00 -0.0000000000e+00 -2.0631415856e+03 2.0631415856e+03 0.0000000000e+00 0.0000e+00 1.0000e+00
        6  1    1    2  501    0 +1.4429027142e+02 -2.4611680004e+00 -6.9531803164e+02 7.3090485352e+02 1.7300000000e+02 0.0000e+00 1.0000e+00
       -6  1    1    2    0  504 -3.1938458345e+02 -6.6179018365e+01 -1.2985339667e+03 1.3500020879e+03 1.7300000000e+02 0.0000e+00 1.0000e+00
       21  1    1    2  504  502 -2.7914423097e+01 +2.1727995180e+01 +3.5412592289e+02 3.5588831121e+02 0.0000000000e+00 0.0000e+00 -1.0000e+00
       21  1    1    2  505  506 +2.0508510507e+02 -4.8280349033e+01 +1.6745087796e+03 1.6877116298e+03 0.0000000000e+00 0.0000e+00 -1.0000e+00
       21  1    1    2  506  503 -2.0763699384e+00 +9.5192540218e+01 +1.0571094048e+02 1.4226993344e+02 0.0000000000e+00 0.0000e+00 -1.0000e+00
<mgrwt>
<rscale>  5 0.27781744E+03</rscale>
<asrwt>0</asrwt>
<pdfrwt beam="1">  1       21 0.33902080E+00 0.27781744E+03</pdfrwt>
<pdfrwt beam="2">  1       21 0.31740640E+00 0.27781744E+03</pdfrwt>
<totfact> 0.45185748E-01</totfact>
</mgrwt>
</event>
<event>
 7      1 +1.2632836e+02 2.07067200e+02 7.54677100e-03 1.07609100e-01
       21 -1    0    0  505  502 +0.0000000000e+00 +0.0000000000e+00 +3.7533384487e+02 3.7533384487e+02 0.0000000000e+00 0.0000e+00 1.0000e+00
       21 -1    0    0  501  503 -0.0000000000e+00 -0.0000000000e+00 -4.0703292951e+02 4.0703292951e+02 0.0000000000e+00 0.0000e+00 -1.0000e+00
        6  1    1    2  501    0 -6.4941064383e+01 -7.3269990597e+01 -1.0347813701e+02 2.2410390046e+02 1.7300000000e+02 0.0000e+00 -1.0000e+00
       -6  1    1    2    0  502 +9.8823139977e+01 +8.2359992580e+01 -1.6037418932e+02 2.6869697053e+02 1.7300000000e+02 0.0000e+00 -1.0000e+00
       21  1    1    2  504  503 +7.1428386084e+00 +3.5342637975e+01 +1.6002924538e-01 3.6057562477e+01 0.0000000000e+00 0.0000e+00 1.0000e+00
       21  1    1    2  505  506 -2.3392045234e+01 +1.1966255727e+01 +1.5089516360e+02 1.5316569281e+02 0.0000000000e+00 0.0000e+00 1.0000e+00
       21  1    1    2  506  504 -1.7632868970e+01 -5.6398895686e+01 +8.1098048837e+01 1.0034264810e+02 0.0000000000e+00 0.0000e+00 1.0000e+00
<mgrwt>
<rscale>  5 0.20706722E+03</rscale>
<asrwt>0</asrwt>
<pdfrwt beam="1">  1       21 0.57743668E-01 0.20706722E+03</pdfrwt>
<pdfrwt beam="2">  1       21 0.62620451E-01 0.20706722E+03</pdfrwt>
<totfact> 0.65768116E+03</totfact>
</mgrwt>
</event>
<event>
 7      1 +1.2632836e+02 2.58915100e+02 7.54677100e-03 1.16943400e-01
       21 -1    0    0  506  502 +0.0000000000e+00 +0.0000000000e+00 +1.1207256101e+03 1.1207256101e+03 0.0000000000e+00 0.0000e+00 -1.0000e+00
       21 -1    0    0  504  503 -0.0000000000e+00 -0.0000000000e+00 -1.1696699843e+02 1.1696699843e+02 0.0000000000e+00 0.0000e+00 1.0000e+00
        6  1    1    2  501    0 -1.6517894030e+02 -1.4020737507e+02 +1.4464708659e+02 3.1272027437e+02 1.7300000000e+02 0.0000e+00 1.0000e+00
       -6  1    1    2    0  502 +8.5301918362e+01 +1.1647731706e+02 +7.1896033768e+02 7.5344299706e+02 1.7300000000e+02 0.0000e+00 -1.0000e+00
       21  1    1    2  504  501 +2.5572737250e+01 -1.0939329695e+01 +2.4381349776e+01 3.6987620112e+01 0.0000000000e+00 0.0000e+00 -1.0000e+00
       21  1    1    2  505  503 +2.0848334868e+01 +2.5982398162e+01 +4.7457718570e+01 5.7982524375e+01 0.0000000000e+00 0.0000e+00 -1.0000e+00
       21  1    1    2  506  505 +3.3455949820e+01 +8.6869895411e+00 +6.8312119073e+01 7.6559192641e+01 0.0000000000e+00 0.0000e+00 -1.0000e+00
<mgrwt>
<rscale>  5 0.25891514E+03</rscale>
<asrwt>0</asrwt>
<pdfrwt beam="1">  1       21 0.17241932E+00 0.25891514E+03</pdfrwt>
<pdfrwt beam="2">  1       21 0.17994924E-01 0.25891514E+03</pdfrwt>
<totfact> 0.54812240E+03</totfact>
</mgrwt>
</event>
<event>
 7      1 +1.2632836e+02 1.89610800e+02 7.54677100e-03 1.11889400e-01
       21 -1    0    0  505  502 +0.0000000000e+00 +0.0000000000e+00 +4.0708720967e+02 4.0708720967e+02 0.0000000000e+00 0.0000e+00 -1.0000e+00
       21 -1    0    0  501  503 -0.0000000000e+00 -0.0000000000e+00 -4.2860935682e+02 4.2860935682e+02 0.0000000000e+00 0.0000e+00 1.0000e+00
        6  1    1    2  501    0 +6.5043373273e+01 -8.2136553905e+01 +1.0818151463e+02 2.2936715982e+02 1.7300000000e+02 0.0000e+00 1.0000e+00
       -6  1    1    2    0  502 -9.5459437247e+01 -6.9272821112e+01 +5.2548641505e+01 2.1587400869e+02 1.7300000000e+02 0.0000e+00 -1.0000e+00
       21  1    1    2  504  506 -1.0531111977e+01 +3.1548643845e+01 +5.1474071407e+01 6.1284592478e+01 0.0000000000e+00 0.0000e+00 -1.0000e+00
       21  1    1    2  505  504 +2.1887503774e+00 +2.0150500992e+01 +3.4714567211e+01 4.0198687728e+01 0.0000000000e+00 0.0000e+00 -1.0000e+00
       21  1    1    2  506  503 +3.8758425574e+01 +9.9710230180e+01 -2.6844094191e+02 2.8897211777e+02 0.0000000000e+00 0.0000e+00 1.0000e+00
<mgrwt>
<rscale>  5 0.18961076E+03</rscale>
<asrwt>0</asrwt>
<pdfrwt beam="1">  1       21 0.62628801E-01 0.18961076E+03</pdfrwt>
<pdfrwt beam="2">  1       21 0.65939901E-01 0.18961076E+03</pdfrwt>
<totfact> 0.50024325E+03</totfact>
</mgrwt>
</event>
<event>
 7      1 +1.2632836e+02 1.91798500e+02 7.54677100e-03 1.06933500e-01
       21 -1    0    0  503  502 +0.0000000000e+00 +0.0000000000e+00 +3.2130486795e+02 3.2130486795e+02 0.0000000000e+00 0.0000e+00 -1.0000e+00
       21 -1    0    0  505  503 -0.0000000000e+00 -0.0000000000e+00 -4.0513272934e+02 4.0513272934e+02 0.0000000000e+00 0.0000e+00 -1.0000e+00
        6  1    1    2  501    0 +2.9268867201e+01 -4.9019821171e+00 -4.2029546373e+01 1.8048872204e+02 1.7300000000e+02 0.0000e+00 1.0000e+00
       -6  1    1    2    0  502 +1.2640555575e+02 +5.0087103240e+01 +1.6562802292e+02 2.7540647126e+02 1.7300000000e+02 0.0000e+00 -1.0000e+00
       21  1    1    2  504  501 -2.0289143857e+01 +5.7116667138e+00 -2.2434336479e+01 3.0782656617e+01 0.0000000000e+00 0.0000e+00 -1.0000e+00
       21  1    1    2  505  506 -2.2640625217e+01 +3.9727777971e+00 -5.2660462651e+01 5.7458726059e+01 0.0000000000e+00 0.0000e+00 -1.0000e+00
       21  1    1    2  506  504 -1.1274465387e+02 -5.4869565634e+01 -1.3233153880e+02 1.8230102131e+02 0.0000000000e+00 0.0000e+00 -1.0000e+00
<mgrwt>
<rscale>  5 0.19179854E+03</rscale>
<asrwt>0</asrwt>
<pdfrwt beam="1">  1       21 0.49431518E-01 0.19179854E+03</pdfrwt>
<pdfrwt beam="2">  1       21 0.62328112E-01 0.19179854E+03</pdfrwt>
<totfact> 0.93215332E+03</totfact>
</mgrwt>
</event>
<event>
 7      1 +1.2632836e+02 5.91737300e+02 7.54677100e-03 1.14732500e-01
       21 -1    0    0  506  502 +0.0000000000e+00 +0.0000000000e+00 +1.0203144324e+03 1.0203144324e+03 0.0000000000e+00 0.0000e+00 -1.0000e+00
       21 -1    0    0  505  503 -0.0000000000e+00 -0.0000000000e+00 -2.9139638314e+03 2.9139638314e+03 0.0000000000e+00 0.0000e+00 1.0000e+00
        6  1    1    2  501    0 +1.7120491477e+02 +4.5335964296e+02 +3.7505564101e+02 6.3674313704e+02 1.7300000000e+02 0.0000e+00 -1.0000e+00
       -6  1    1    2    0  504 -5.1997701823e+02 +1.9889839600e+02 -2.3033660217e+03 2.3759967806e+03 1.7300000000e+02 0.0000e+00 1.0000e+00
       21  1    1    2  504  503 -1.8468709078e+01 -9.6542171107e+00 -6.3277856505e+01 6.6621199681e+01 0.0000000000e+00 0.0000e+00 1.0000e+00
       21  1    1    2  505  502 +3.0715430939e+02 -6.8789667600e+02 +3.0659513237e+01 7.5397984879e+02 0.0000000000e+00 0.0000e+00 -1.0000e+00
       21  1    1    2  506  501 +6.0086503148e+01 +4.5292854161e+01 +6.7279325019e+01 1.0093729773e+02 0.0000000000e+00 0.0000e+00 1.0000e+00
<mgrwt>
<rscale>  5 0.58012618E+03</rscale>
<asrwt>0</asrwt>
<pdfrwt beam="1">  1       21 0.15697145E+00 0.59173734E+03</pdfrwt>
<pdfrwt beam="2">  1       21 0.44830213E+00 0.59173734E+03</pdfrwt>
<totfact> 0.67715317E-01</totfact>
</mgrwt>
</event>
<event>
 7      1 +1.2632836e+02 3.27516300e+02 7.54677100e-03 1.12597700e-01
       21 -1    0    0  501  502 +0.0000000000e+00 +0.0000000000e+00 +1.4304531474e+03 1.4304531474e+03 0.0000000000e+00 0.0000e+00 1.0000e+00
       21 -1    0    0  506  503 -0.0000000000e+00 -0.0000000000e+00 -8.5188450424e+02 8.5188450424e+02 0.0000000000e+00 0.0000e+00 1.0000e+00
        6  1    1    2  501    0 +3.0845721918e+02 -2.2509955134e+02 -5.8720004401e+02 7.2149050982e+02 1.7300000000e+02 0.0000e+00 1.0000e+00
       -6  1    1    2    0  504 -1.5235859680e+02 +1.3343589307e+02 +1.3499356251e+02 2.9861436921e+02 1.7300000000e+02 0.0000e+00 -1.0000e+00
       21  1    1    2  504  503 -1.1845903702e+01 -2.3261839579e+01 +1.1665769370e+01 2.8592460372e+01 0.0000000000e+00 0.0000e+00 -1.0000e+00
       21  1    1    2  505  502 -2.9095340182e+01 +1.0423176383e+02 +1.0917283219e+03 1.0970786336e+03 0.0000000000e+00 0.0000e+00 1.0000e+00
       21  1    1    2  506  505 -1.1515737849e+02 +1.0693734011e+01 -7.2618966599e+01 1.3656167866e+02 0.0000000000e+00 0.0000e+00 1.0000e+00
<mgrwt>
<rscale>  5 0.32751627E+03</rscale>
<asrwt>0</asrwt>
<pdfrwt beam="1">  1       21 0.22006972E+00 0.32751627E+03</pdfrwt>
<pdfrwt beam="2">  1       21 0.13105915E+00 0.32751627E+03</pdfrwt>
<totfact> 0.36075058E+01</totfact>
</mgrwt>
</event>
<event>
 7      1 +1.2632836e+02 2.92248000e+02 7.54677100e-03 1.11674500e-01
       21 -1    0    0  505  502 +0.0000000000e+00 +0.0000000000e+00 +1.1751179261e+03 1.1751179261e+03 0.0000000000e+00 0.0000e+00 1.0000e+00
       21 -1    0    0  502  503 -0.0000000000e+00 -0.0000000000e+00 -2.5955291605e+02 2.5955291605e+02 0.0000000000e+00 0.0000e+00 1.0000e+00
        6  1    1    2  501    0 +2.2668911169e+02 -4.6591245817e+01 +3.9596942382e+02 4.9018311083e+02 1.7300000000e+02 0.0000e+00 1.0000e+00
       -6  1    1    2    0  503 +1.3311647871e+02 -4.6630784643e+01 +3.3870165651e+01 2.2576672718e+02 1.7300000000e+02 0.0000e+00 -1.0000e+00
       21  1    1    2  504  506 -2.4947869863e+02 +1.4794303744e+02 +1.1382927471e+02 3.1158284160e+02 0.0000000000e+00 0.0000e+00 1.0000e+00
       21  1    1    2  505  504 -6.7931914005e+01 -3.3671704542e+01 +3.4387181394e+02 3.5213115888e+02 0.0000000000e+00 0.0000e+00 1.0000e+00
       21  1    1    2  506  501 -4.2394977759e+01 -2.1049302439e+01 +2.8024331956e+01 5.5007003680e+01 0.0000000000e+00 0.0000e+00 -1.0000e+00
<mgrwt>
<rscale>  5 0.27166681E+03</rscale>
<asrwt>0</asrwt>
<pdfrwt beam="1">  1       21 0.18078737E+00 0.29224804E+03</pdfrwt>
<pdfrwt beam="2">  1       21 0.39931219E-01 0.29224804E+03</pdfrwt>
<totfact> 0.99434109E+02</totfact>
</mgrwt>
</event>
<event>
 7      1 +1.2632836e+02 3.20442400e+02 7.54677100e-03 1.12326900e-01
       21 -1    0    0  504  502 +0.0000000000e+00 +0.0000000000e+00 +2.6837552009e+02 2.6837552009e+02 0.0000000000e+00 0.0000e+00 1.0000e+00
       21 -1    0    0  506  503 -0.0000000000e+00 -0.0000000000e+00 -1.4996323464e+03 1.4996323464e+03 0.0000000000e+00 0.0000e+00 1.0000e+00
        6  1    1    2  501    0 +8.8830264806e+01 +2.0825053690e+02 -2.4977760113e+02 3.7891549466e+02 1.7300000000e+02 0.0000e+00 -1.0000e+00
       -6  1    1    2    0  502 +1.3026445290e+02 -6.2246650429e+00 +9.2435878813e+01 2.3554397856e+02 1.7300000000e+02 0.0000e+00 1.0000e+00
       21  1    1    2  504  505 -2.5715595019e+02 -1.7710319238e+02 -6.2899538749e+02 7.0223209906e+02 0.0000000000e+00 0.0000e+00 1.0000e+00
       21  1    1    2  505  503 +6.8641845758e+00 -3.7345194483e+01 -3.0834307969e+02 3.1067223142e+02 0.0000000000e+00 0.0000e+00 1.0000e+00
       21  1    1    2  506  501 +3.1197047910e+01 +1.2422515003e+01 -1.3657663682e+02 1.4064406280e+02 0.0000000000e+00 0.0000e+00 1.0000e+00
<mgrwt>
<rscale>  5 0.29111280E+03</rscale>
<asrwt>0</asrwt>
<pdfrwt beam="1">  1       21 0.41288542E-01 0.32044242E+03</pdfrwt>
<pdfrwt beam="2">  1       21 0.23071267E+00 0.32044242E+03</pdfrwt>
<totfact> 0.43102936E+02</totfact>
</mgrwt>
</event>
<event>
 7      1 +1.2632836e+02 1.88862400e+02 7.54677100e-03 1.10132700e-01
       21 -1    0    0  504  502 +0.0000000000e+00 +0.0000000000e+00 +9.0317980651e+02 9.0317980651e+02 0.0000000000e+00 0.0000e+00 -1.0000e+00
       21 -1    0    0  501  503 -0.0000000000e+00 -0.0000000000e+00 -1.0536076748e+03 1.0536076748e+03 0.0000000000e+00 0.0000e+00 -1.0000e+00
        6  1    1    2  501    0 +9.0739988116e+01 +1.4298680168e+02 -3.4527317181e+02 4.2168890674e+02 1.7300000000e+02 0.0000e+00 1.0000e+00
       -6  1    1    2    0  502 -3.5387934793e+01 -1.5289862524e+01 +2.1487490864e+02 2.7854319627e+02 1.7300000000e+02 0.0000e+00 -1.0000e+00
       21  1    1    2  504  505 -1.9995230825e+01 -3.2932121084e+01 +6.1003400674e+02 6.1124939528e+02 0.0000000000e+00 0.0000e+00 -1.0000e+00
       21  1    1    2  505  506 +7.8837883206e-01 -1.0240895122e+02 -4.5388599851e+02 4.6529637273e+02 0.0000000000e+00 0.0000e+00 -1.0000e+00
       21  1    1    2  506  503 -3.6145201331e+01 +7.6441331463e+00 -1.7617761331e+02 1.8000961025e+02 0.0000000000e+00 0.0000e+00 -1.0000e+00
<mgrwt>
<rscale>  5 0.18886240E+03</rscale>
<asrwt>0</asrwt>
<pdfrwt beam="1">  1       21 0.13895074E+00 0.18886240E+03</pdfrwt>
<pdfrwt beam="2">  1       21 0.16209349E+00 0.18886240E+03</pdfrwt>
<totfact> 0.89152380E+01</totfact>
</mgrwt>
</event>
<event>
 7      1 +1.2632836e+02 2.61674100e+02 7.54677100e-03 1.04217400e-01
       21 -1    0    0  504  502 +0.0000000000e+00 +0.0000000000e+00 +1.1923095745e+03 1.1923095745e+03 0.0000000000e+00 0.0000e+00 1.0000e+00
       21 -1    0    0  501  503 -0.0000000000e+00 -0.0000000000e+00 -8.2860935439e+02 8.2860935439e+02 0.0000000000e+00 0.0000e+00 1.0000e+00
        6  1    1    2  501    0 -6.1967923879e+01 -8.4956982037e+00 -5.1337449418e+02 5.4533895125e+02 1.7300000000e+02 0.0000e+00 1.0000e+00
       -6  1    1    2    0  506 -1.4293140979e+02 -1.2440905140e+01 -2.0357867565e+02 3.0324485355e+02 1.7300000000e+02 0.0000e+00 -1.0000e+00
       21  1    1    2  504  503 +1.7829308448e+02 +1.6556858413e+02 +4.4940071070e+02 5.1104048646e+02 0.0000000000e+00 0.0000e+00 1.0000e+00
       21  1    1    2  505  502 -3.3966179105e+01 -7.2932276847e+00 +2.3519636702e+02 2.3774823564e+02 0.0000000000e+00 0.0000e+00 -1.0000e+00
       21  1    1    2  506  505 +6.0572428299e+01 -1.3733875310e+02 +3.9605631218e+02 4.2354640194e+02 0.0000000000e+00 0.0000e+00 1.0000e+00
<mgrwt>
<rscale>  5 0.23960263E+03</rscale>
<asrwt>0</asrwt>
<pdfrwt beam="1">  1       21 0.18343224E+00 0.26167411E+03</pdfrwt>
<pdfrwt beam="2">  1       21 0.12747836E+00 0.26167411E+03</pdfrwt>
<totfact> 0.71766630E+01</totfact>
</mgrwt>
</event>
<event>
 7      1 +1.2632836e+02 3.59629300e+02 7.54677100e-03 1.06933500e-01
       21 -1    0    0  503  502 +0.0000000000e+00 +0.0000000000e+00 +2.1227144934e+03 2.1227144934e+03 0.0000000000e+00 0.0000e+00 1.0000e+00
       21 -1    0    0  505  503 -0.0000000000e+00 -0.0000000000e+00 -1.8204585123e+02 1.8204585123e+02 0.0000000000e+00 0.0000e+00 -1.0000e+00
        6  1    1    2  501    0 -3.0311427849e+02 -2.9663968135e+02 +7.5348668676e+02 8.8178486804e+02 1.7300000000e+02 0.0000e+00 -1.0000e+00
       -6  1    1    2    0  502 +1.3930987286e+02 +2.1641037090e+02 +9.7238218807e+02 1.0206354927e+03 1.7300000000e+02 0.0000e+00 1.0000e+00
       21  1    1    2  504  506 +9.4076915513e+01 -4.6471696146e+01 +4.3850666658e+01 1.1372319702e+02 0.0000000000e+00 0.0000e+00 1.0000e+00
       21  1    1    2  505  504 +6.0483743047e+01 +9.0085673955e+01 -5.0378562552e+00 1.0862362460e+02 0.0000000000e+00 0.0000e+00 -1.0000e+00
       21  1    1    2  506  501 +9.2437470766e+00 +3.6615332641e+01 +1.7598695698e+02 1.7999316230e+02 0.0000000000e+00 0.0000e+00 1.0000e+00
<mgrwt>
<rscale>  5 0.35962932E+03</rscale>
<asrwt>0</asrwt>
<pdfrwt beam="1">  1       21 0.32657144E+00 0.35962932E+03</pdfrwt>
<pdfrwt beam="2">  1       21 0.28007055E-01 0.35962932E+03</pdfrwt>
<totfact> 0.24237692E+02</totfact>
</mgrwt>
</event>
<event>
 7      1 +1.2632836e+02 2.89094000e+02 7.54677100e-03 1.11889400e-01
       21 -1    0    0  505  502 +0.0000000000e+00 +0.0000000000e+00 +2.1266575521e+03 2.1266575521e+03 0.0000000000e+00 0.0000e+00 -1.0000e+00
       21 -1    0    0  504  503 -0.0000000000e+00 -0.0000000000e+00 -3.5695326794e+02 3.5695326794e+02 0.0000000000e+00 0.0000e+00 1.0000e+00
        6  1    1    2  501    0 +7.0535577955e+01 -1.8665961183e+02 +3.1159938475e+02 4.0846083658e+02 1.7300000000e+02 0.0000e+00 1.0000e+00
       -6  1    1    2    0  503 -1.8953372214e+02 -1.2238892190e+02 +4.5117875745e+02 5.3328543127e+02 1.7300000000e+02 0.0000e+00 -1.0000e+00
       21  1    1    2  504  506 +2.9362985544e+01 +5.9701760248e+01 -2.2204818084e+02 2.3180137987e+02 0.0000000000e+00 0.0000e+00 1.0000e+00
       21  1    1    2  505  501 +6.2627992200e+01 +2.3944665500e+02 +1.2501057249e+03 1.2743709388e+03 0.0000000000e+00 0.0000e+00 -1.0000e+00
       21  1    1    2  506  502 +2.7007166443e+01 +9.9001184794e+00 -2.1131402091e+01 3.5692233602e+01 0.0000000000e+00 0.0000e+00 1.0000e+00
<mgrwt>
<rscale>  5 0.27904537E+03</rscale>
<asrwt>0</asrwt>
<pdfrwt beam="1">  1       21 0.32717808E+00 0.28909400E+03</pdfrwt>
<pdfrwt beam="2">  1       21 0.54915888E-01 0.28909400E+03</pdfrwt>
<totfact> 0.64956284E+01</totfact>
</mgrwt>
</event>
<event>
 7      1 +1.2632836e+02 2.90342900e+02 7.54677100e-03 1.03604800e-01
       21 -1    0    0  501  502 +0.0000000000e+00 +0.0000000000e+00 +5.3215015189e+02 5.3215015189e+02 0.0000000000e+00 0.0000e+00 -1.0000e+00
       21 -1    0    0  504  503 -0.0000000000e+00 -0.0000000000e+00 -3.3443112791e+02 3.3443112791e+02 0.0000000000e+00 0.0000e+00 -1.0000e+00
        6  1    1    2  501    0 -1.9347016918e+02 +1.7506803060e+02 +1.7488754640e+02 3.5860030059e+02 1.7300000000e+02 0.0000e+00 -1.0000e+00
       -6  1    1    2    0  505 +1.7260425627e+02 -1.2099686644e+02 +1.6511800481e+02 3.1878743150e+02 1.7300000000e+02 0.0000e+00 -1.0000e+00
       21  1    1    2  504  502 -3.9221744379e+00 -3.9691548414e+01 -3.1810139024e+01 5.1016540578e+01 0.0000000000e+00 0.0000e+00 1.0000e+00
       21  1    1    2  505  506 -2.0643242935e+01 -1.3385571916e+01 -7.6631045279e+00 2.5768977190e+01 0.0000000000e+00 0.0000e+00 1.0000e+00
       21  1    1    2  506  503 +4.5431330281e+01 -9.9404382887e-01 -1.0281328368e+02 1.1240802994e+02 0.0000000000e+00 0.0000e+00 -1.0000e+00
<mgrwt>
<rscale>  5 0.29034294E+03</rscale>
<asrwt>0</asrwt>
<pdfrwt beam="1">  1       21 0.81869254E-01 0.29034294E+03</pdfrwt>
<pdfrwt beam="2">  1       21 0.51450943E-01 0.29034294E+03</pdfrwt>
<totfact> 0.43918782E+03</totfact>
</mgrwt>
</event>
<event>
 7      1 +1.2632836e+02 1.82764300e+02 7.54677100e-03 1.07609100e-01
       21 -1    0    0  505  502 +0.0000000000e+00 +0.0000000000e+00 +1.1848682091e+02 1.1848682091e+02 0.0000000000e+00 0.0000e+00 1.0000e+00
       21 -1    0    0  506  503 -0.0000000000e+00 -0.0000000000e+00 -9.5627352869e+02 9.5627352869e+02 0.0000000000e+00 0.0000e+00 1.0000e+00
        6  1    1    2  501    0 -8.7733146367e+01 -5.0327977871e+01 -3.0202620773e+02 3.6246219180e+02 1.7300000000e+02 0.0000e+00 1.0000e+00
       -6  1    1    2    0  504 +3.4650431810e+01 +1.3203510784e+01 -4.0591693458e+02 4.4280079370e+02 1.7300000000e+02 0.0000e+00 1.0000e+00
       21  1    1    2  504  503 -2.8859419227e+00 -2.3483263101e+01 -1.1006467246e+02 1.1257896976e+02 0.0000000000e+00 0.0000e+00 1.0000e+00
       21  1    1    2  505  501 -2.1702406659e+01 -2.9535741143e+01 -3.4660924918e+00 3.6815326385e+01 0.0000000000e+00 0.0000e+00 1.0000e+00
       21  1    1    2  506  502 +7.7671063138e+01 +9.0143471331e+01 -1.6312800515e+01 1.2010306796e+02 0.0000000000e+00 0.0000e+00 1.0000e+00
<mgrwt>
<rscale>  5 0.18276434E+03</rscale>
<asrwt>0</asrwt>
<pdfrwt beam="1">  1       21 0.18228741E-01 0.18276434E+03</pdfrwt>
<pdfrwt beam="2">  1       21 0.14711901E+00 0.18276434E+03</pdfrwt>
<totfact> 0.86929091E+03</totfact>
</mgrwt>
</event>
<event>
 7      1 +1.2632836e+02 2.27292800e+02 7.54677100e-03 1.16780200e-01
       21 -1    0    0  501  502 +0.0000000000e+00 +0.0000000000e+00 +7.0125356406e+02 7.0125356406e+02 0.0000000000e+00 0.0000e+00 1.0000e+00
       21 -1    0    0  506  503 -0.0000000000e+00 -0.0000000000e+00 -1.8006120365e+02 1.8006120365e+02 0.0000000000e+00 0.0000e+00 1.0000e+00
        6  1    1    2  501    0 +3.1692127322e+01 -1.4573564107e+02 +9.9766184762e+01 2.4924999425e+02 1.7300000000e+02 0.0000e+00 1.0000e+00
       -6  1    1    2    0  503 +6.1595244233e-01 +1.4765677884e+02 +2.5095153674e+01 2.2882672587e+02 1.7300000000e+02 0.0000e+00 1.0000e+00
       21  1    1    2  504  502 +6.0874857455e+00 -2.5476230445e+01 +1.2487409998e+02 1.2759167938e+02 0.0000000000e+00 0.0000e+00 -1.0000e+00
       21  1    1    2  505  504 -2.1539731847e+01 +9.9770867965e+00 +1.8520664621e+02 1.8672172908e+02 0.0000000000e+00 0.0000e+00 1.0000e+00
       21  1    1    2  506  505 -1.6855833663e+01 +1.3578005879e+01 +8.6250275778e+01 8.8924639127e+01 0.0000000000e+00 0.0000e+00 1.0000e+00
<mgrwt>
<rscale>  5 0.22729276E+03</rscale>
<asrwt>0</asrwt>
<pdfrwt beam="1">  1       21 0.10788516E+00 0.22729276E+03</pdfrwt>
<pdfrwt beam="2">  1       21 0.27701724E-01 0.22729276E+03</pdfrwt>
<totfact> 0.83099991E+03</totfact>
</mgrwt>
</event>
<event>
 7      1 +1.2632836e+02 1.92266700e+02 7.54677100e-03 1.14097200e-01
       21 -1    0    0  506  502 +0.0000000000e+00 +0.0000000000e+00 +3.3343926517e+02 3.3343926517e+02 0.0000000000e+00 0.0000e+00 1.0000e+00
       21 -1    0    0  504  503 -0.0000000000e+00 -0.0000000000e+00 -4.4194542896e+02 4.4194542896e+02 0.0000000000e+00 0.0000e+00 1.0000e+00
        6  1    1    2  501    0 -1.0678539325e+01 -3.8613663104e+01 +9.7223178978e+01 2.0245096372e+02 1.7300000000e+02 0.0000e+00 1.0000e+00
       -6  1    1    2    0  502 +1.8663887596e+02 +5.2207785384e+01 -1.2776852386e+02 2.8950564513e+02 1.7300000000e+02 0.0000e+00 1.0000e+00
       21  1    1    2  504  501 -7.8915460299e+01 +4.3273247939e+01 -2.2096205450e+01 9.2673977775e+01 0.0000000000e+00 0.0000e+00 1.0000e+00
       21  1    1    2  505  503 -4.3629132573e+01 -5.5114820426e+01 -9.9454091407e+01 1.2178777006e+02 0.0000000000e+00 0.0000e+00 1.0000e+00
       21  1    1    2  506  505 -5.3415743768e+01 -1.7525497925e+00 +4.3589477943e+01 6.8966337443e+01 0.0000000000e+00 0.0000e+00 1.0000e+00
<mgrwt>
<rscale>  5 0.19226674E+03</rscale>
<asrwt>0</asrwt>
<pdfrwt beam="1">  1       21 0.51298349E-01 0.19226674E+03</pdfrwt>
<pdfrwt beam="2">  1       21 0.67991604E-01 0.19226674E+03</pdfrwt>
<totfact> 0.71370685E+03</totfact>
</mgrwt>
</event>
<event>
 7      1 +1.2632836e+02 2.54462800e+02 7.54677100e-03 1.17264400e-01
       21 -1    0    0  504  502 +0.0000000000e+00 +0.0000000000e+00 +1.6774443798e+03 1.6774443798e+03 0.0000000000e+00 0.0000e+00 1.0000e+00
       21 -1    0    0  501  503 -0.0000000000e+00 -0.0000000000e+00 -3.2080303945e+02 3.2080303945e+02 0.0000000000e+00 0.0000e+00 1.0000e+00
        6  1    1    2  501    0 +6.1782097009e+01 -4.5428062385e+01 +2.5168957622e+02 3.1489264701e+02 1.7300000000e+02 0.0000e+00 1.0000e+00
       -6  1    1    2    0  506 -1.9904098882e+02 +8.0481674982e+01 +1.1624686227e+03 1.1947204334e+03 1.7300000000e+02 0.0000e+00 1.0000e+00
       21  1    1    2  504  505 +1.0128433374e+02 -3.6527437354e+01 -1.1511696384e+02 1.5762196961e+02 0.0000000000e+00 0.0000e+00 1.0000e+00
       21  1    1    2  505  503 +8.3893066103e+01 +1.8776569507e+01 -1.1922900884e+02 1.4699034884e+02 0.0000000000e+00 0.0000e+00 1.0000e+00
       21  1    1    2  506  502 -4.7918508027e+01 -1.7302744751e+01 +1.7682911408e+02 1.8402202035e+02 0.0000000000e+00 0.0000e+00 1.0000e+00
<mgrwt>
<rscale>  5 0.23569491E+03</rscale>
<asrwt>0</asrwt>
<pdfrwt beam="1">  1       21 0.25806836E+00 0.25446279E+03</pdfrwt>
<pdfrwt beam="2">  1       21 0.49354315E-01 0.25446279E+03</pdfrwt>
<totfact> 0.21597784E+02</totfact>
</mgrwt>
</event>
<event>
 7      1 +1.2632836e+02 1.76551400e+02 7.54677100e-03 1.10132700e-01
       21 -1    0    0  505  502 +0.0000000000e+00 +0.0000000000e+00 +8.0329140361e+02 8.0329140361e+02 0.0000000000e+00 0.0000e+00 -1.0000e+00
       21 -1    0    0  506  503 -0.0000000000e+00 -0.0000000000e+00 -3.5624603646e+02 3.5624603646e+02 0.0000000000e+00 0.0000e+00 1.0000e+00
        6  1    1    2  501    0 -7.3030684239e-01 +2.8416087573e+01 +1.5268830147e+02 2.3248811752e+02 1.7300000000e+02 0.0000e+00 -1.0000e+00
       -6  1    1    2    0  504 -3.6588710635e+00 +1.7359091452e+02 +5.9573024656e+01 2.5224023907e+02 1.7300000000e+02 0.0000e+00 1.0000e+00
       21  1    1    2  504  502 +9.2664820756e+01 +2.2446492721e+01 +3.3346230828e+02 3.4682520826e+02 0.0000000000e+00 0.0000e+00 1.0000e+00
       21  1    1    2  505  503 +3.9258306008e+01 -1.2112216116e+02 -1.0302354103e+02 1.6378535503e+02 0.0000000000e+00 0.0000e+00 1.0000e+00
       21  1    1    2  506  501 -1.2753394886e+02 -1.0333133365e+02 +4.3452737757e+00 1.6419852018e+02 0.0000000000e+00 0.0000e+00 1.0000e+00
<mgrwt>
<rscale>  5 0.17655142E+03</rscale>
<asrwt>0</asrwt>
<pdfrwt beam="1">  1       21 0.12358329E+00 0.17655142E+03</pdfrwt>
<pdfrwt beam="2">  1       21 0.54807083E-01 0.17655142E+03</pdfrwt>
<totfact> 0.15672536E+03</totfact>
</mgrwt>
</event>
<event>
 7      1 +1.2632836e+02 1.77108200e+02 7.54677100e-03 1.13624600e-01
       21 -1    0    0  506  502 +0.0000000000e+00 +0.0000000000e+00 +5.8637473035e+02 5.8637473035e+02 0.0000000000e+00 0.0000e+00 1.0000e+00
       21 -1    0    0  505  503 -0.0000000000e+00 -0.0000000000e+00 -1.6255474126e+02 1.6255474126e+02 0.0000000000e+00 0.0000e+00 1.0000e+00
        6  1    1    2  501    0 -8.9728277084e+00 +1.5311019275e+01 +5.9931083836e+01 1.8394475735e+02 1.7300000000e+02 0.0000e+00 1.0000e+00
       -6  1    1    2    0  503 +1.6582773659e+01 +7.7310922333e+01 +9.6004357174e+00 1.9045507465e+02 1.7300000000e+02 0.0000e+00 -1.0000e+00
       21  1    1    2  504  501 -1.6076493268e+01 -1.9524846398e+01 +1.1696724517e+02 1.1967042118e+02 0.0000000000e+00 0.0000e+00 1.0000e+00
       21  1    1    2  505  502 +1.2806635896e+01 -3.0460014806e+01 +3.5339895206e+01 4.8381097736e+01 0.0000000000e+00 0.0000e+00 1.0000e+00
       21  1    1    2  506  504 -4.3400885775e+00 -4.2637080404e+01 +2.0198132917e+02 2.0647812070e+02 0.0000000000e+00 0.0000e+00 1.0000e+00
<mgrwt>
<rscale>  5 0.17710824E+03</rscale>
<asrwt>0</asrwt>
<pdfrwt beam="1">  1       21 0.90211496E-01 0.17710824E+03</pdfrwt>
<pdfrwt beam="2">  1       21 0.25008422E-01 0.17710824E+03</pdfrwt>
<totfact> 0.15976141E+04</totfact>
</mgrwt>
</event>
<event>
 7      1 +1.2632836e+02 2.27852100e+02 7.54677100e-03 1.13624600e-01
       21 -1    0    0  506  502 +0.0000000000e+00 +0.0000000000e+00 +4.1705157891e+02 4.1705157891e+02 0.0000000000e+00 0.0000e+00 1.0000e+00
       21 -1    0    0  501  503 -0.0000000000e+00 -0.0000000000e+00 -9.1318879057e+02 9.1318879057e+02 0.0000000000e+00 0.0000e+00 1.0000e+00
        6  1    1    2  501    0 +2.0277436345e+01 +1.5901951733e+02 -6.2506388178e+02 6.6808101127e+02 1.7300000000e+02 0.0000e+00 1.0000e+00
       -6  1    1    2    0  502 -8.0326702017e+01 -1.0791781411e+02 -2.0644492047e+02 3.0107663285e+02 1.7300000000e+02 0.0000e+00 -1.0000e+00
       21  1    1    2  504  505 +1.1703277420e+01 -1.6276165603e+01 +7.3416388318e+01 7.6104180849e+01 0.0000000000e+00 0.0000e+00 1.0000e+00
       21  1    1    2  505  503 +4.4575415783e+00 -2.1698466912e+01 +3.4173721164e+00 2.2413647081e+01 0.0000000000e+00 0.0000e+00 -1.0000e+00
       21  1    1    2  506  504 +4.3888446673e+01 -1.3127070700e+01 +2.5853783016e+02 2.6256489742e+02 0.0000000000e+00 0.0000e+00 1.0000e+00
<mgrwt>
<rscale>  5 0.22785210E+03</rscale>
<asrwt>0</asrwt>
<pdfrwt beam="1">  1       21 0.64161783E-01 0.22785210E+03</pdfrwt>
<pdfrwt beam="2">  1       21 0.14049058E+00 0.22785210E+03</pdfrwt>
<totfact> 0.76731115E+02</totfact>
</mgrwt>
</event>
<event>
 7      1 +1.2632836e+02 1.88801100e+02 7.54677100e-03 1.12597700e-01
       21 -1    0    0  501  502 +0.0000000000e+00 +0.0000000000e+00 +4.8722302345e+02 4.8722302345e+02 0.0000000000e+00 0.0000e+00 -1.0000e+00
       21 -1    0    0  506  503 -0.0000000000e+00 -0.0000000000e+00 -2.4538900972e+02 2.4538900972e+02 0.0000000000e+00 0.0000e+00 -1.0000e+00
        6  1    1    2  501    0 -4.6502465833e+01 -1.2898174000e+02 +3.2883804199e+01 2.2317955364e+02 1.7300000000e+02 0.0000e+00 -1.0000e+00
       -6  1    1    2    0  503 +5.0132510578e+01 +2.4652069867e+01 -4.0026083210e+01 1.8615069300e+02 1.7300000000e+02 0.0000e+00 -1.0000e+00
       21  1    1    2  504  505 +2.4587422571e+01 +4.8069806660e+00 +2.0023925616e+01 3.2071888140e+01 0.0000000000e+00 0.0000e+00 1.0000e+00
       21  1    1    2  505  502 -6.2538329697e+00 +1.0602627910e+02 +2.4240013118e+02 2.6464789038e+02 0.0000000000e+00 0.0000e+00 -1.0000e+00
       21  1    1    2  506  504 -2.1963634346e+01 -6.5035896314e+00 -1.3447764061e+01 2.6562008019e+01 0.0000000000e+00 0.0000e+00 -1.0000e+00
<mgrwt>
<rscale>  5 0.18880113E+03</rscale>
<asrwt>0</asrwt>
<pdfrwt beam="1">  1       21 0.74957388E-01 0.18880113E+03</pdfrwt>
<pdfrwt beam="2">  1       21 0.37752155E-01 0.18880113E+03</pdfrwt>
<totfact> 0.10800686E+04</totfact>
</mgrwt>
</event>
<event>
 7      1 +1.2632836e+02 2.65501800e+02 7.54677100e-03 1.15490700e-01
       21 -1    0    0  504  502 +0.0000000000e+00 +0.0000000000e+00 +1.2924245065e+03 1.2924245065e+03 0.0000000000e+00 0.0000e+00 -1.0000e+00
       21 -1    0    0  505  503 -0.0000000000e+00 -0.0000000000e+00 -5.6987275046e+02 5.6987275046e+02 0.0000000000e+00 0.0000e+00 -1.0000e+00
        6  1    1    2  501    0 -4.4242075835e+01 +1.0027009002e+02 -4.1235636926e+00 2.0483519230e+02 1.7300000000e+02 0.0000e+00 -1.0000e+00
       -6  1    1    2    0  502 -8.1884046612e+00 -3.1692838311e+02 +1.0682487034e+03 1.1276501861e+03 1.7300000000e+02 0.0000e+00 -1.0000e+00
       21  1    1    2  504  506 +4.1959137518e+00 +2.2633237344e+01 +2.3992904118e+01 3.3249489814e+01 0.0000000000e+00 0.0000e+00 1.0000e+00
       21  1    1    2  505  501 +3.8756904224e+01 +1.2742347592e+02 -3.9957104359e+02 4.2118387756e+02 0.0000000000e+00 0.0000e+00 -1.0000e+00
       21  1    1    2  506  503 +9.4776625205e+00 +6.6601579827e+01 +3.4004755766e+01 7.5378511109e+01 0.0000000000e+00 0.0000e+00 -1.0000e+00
<mgrwt>
<rscale>  5 0.26550180E+03</rscale>
<asrwt>0</asrwt>
<pdfrwt beam="1">  1       21 0.19883454E+00 0.26550180E+03</pdfrwt>
<pdfrwt beam="2">  1       21 0.87672731E-01 0.26550180E+03</pdfrwt>
<totfact> 0.13986614E+02</totfact>
</mgrwt>
</event>
<event>
 7      1 +1.2632836e+02 1.84566500e+02 7.54677100e-03 1.03604800e-01
       21 -1    0    0  501  502 +0.0000000000e+00 +0.0000000000e+00 +1.6590884824e+02 1.6590884824e+02 0.0000000000e+00 0.0000e+00 1.0000e+00
       21 -1    0    0  504  503 -0.0000000000e+00 -0.0000000000e+00 -7.4511256824e+02 7.4511256824e+02 0.0000000000e+00 0.0000e+00 1.0000e+00
        6  1    1    2  501    0 +6.7927168376e+01 +1.5374761557e+01 -2.9839171559e+01 1.8886465963e+02 1.7300000000e+02 0.0000e+00 1.0000e+00
       -6  1    1    2    0  505 -5.9347480045e+01 -4.8886022751e+00 -2.3404795037e+01 1.8445272091e+02 1.7300000000e+02 0.0000e+00 1.0000e+00
       21  1    1    2  504  502 +4.6207021207e+01 -1.3884231719e+01 -1.5782463024e+02 1.6503476788e+02 0.0000000000e+00 0.0000e+00 1.0000e+00
       21  1    1    2  505  506 -2.0008424973e+01 +1.5975637330e+00 -8.1915716306e+01 8.4339041124e+01 0.0000000000e+00 0.0000e+00 -1.0000e+00
       21  1    1    2  506  503 -3.4778284566e+01 +1.8005087035e+00 -2.8621940685e+02 2.8833022694e+02 0.0000000000e+00 0.0000e+00 1.0000e+00
<mgrwt>
<rscale>  5 0.18456653E+03</rscale>
<asrwt>0</asrwt>
<pdfrwt beam="1">  1       21 0.25524439E-01 0.18456653E+03</pdfrwt>
<pdfrwt beam="2">  1       21 0.11463270E+00 0.18456653E+03</pdfrwt>
<totfact> 0.86527820E+03</totfact>
</mgrwt>
</event>
<event>
 7      1 +1.2632836e+02 1.90252500e+02 7.54677100e-03 1.17264400e-01
       21 -1    0    0  506  502 +0.0000000000e+00 +0.0000000000e+00 +8.1753248239e+02 8.1753248239e+02 0.0000000000e+00 0.0000e+00 -1.0000e+00
       21 -1    0    0  501  503 -0.0000000000e+00 -0.0000000000e+00 -4.3579074216e+02 4.3579074216e+02 0.0000000000e+00 0.0000e+00 -1.0000e+00
        6  1    1    2  501    0 +7.5460018411e+00 +1.5612234226e+01 +1.3216192529e+02 2.1839518882e+02 1.7300000000e+02 0.0000e+00 -1.0000e+00
       -6  1    1    2    0  502 +8.5973620384e+01 -1.6839544922e+02 -1.4467183848e+02 2.9429140587e+02 1.7300000000e+02 0.0000e+00 -1.0000e+00
       21  1    1    2  504  503 -1.1817339899e+00 +1.4333037490e+02 -9.7413238738e+01 1.7330416021e+02 0.0000000000e+00 0.0000e+00 -1.0000e+00
       21  1    1    2  505  504 -7.2353417521e+01 +3.2247531032e+01 +4.6241894936e+00 7.9349249607e+01 0.0000000000e+00 0.0000e+00 -1.0000e+00
       21  1    1    2  506  505 -1.9984470714e+01 -2.2794690938e+01 +4.8704070266e+02 4.8798322005e+02 0.0000000000e+00 0.0000e+00 -1.0000e+00
<mgrwt>
<rscale>  5 0.19025250E+03</rscale>
<asrwt>0</asrwt>
<pdfrwt beam="1">  1       21 0.12577423E+00 0.19025250E+03</pdfrwt>
<pdfrwt beam="2">  1       21 0.67044730E-01 0.19025250E+03</pdfrwt>
<totfact> 0.95922922E+02</totfact>
</mgrwt>
</event>
<event>
 7      1 +1.2632836e+02 1.96341400e+02 7.54677100e-03 1.16938300e-01
       21 -1    0    0  503  502 +0.0000000000e+00 +0.0000000000e+00 +2.6721683439e+03 2.6721683439e+03 0.0000000000e+00 0.0000e+00 1.0000e+00
       21 -1    0    0  506  503 -0.0000000000e+00 -0.0000000000e+00 -5.4103245982e+01 5.4103245982e+01 0.0000000000e+00 0.0000e+00 -1.0000e+00
        6  1    1    2  501    0 -3.0350553444e+01 +9.1246416253e+01 +2.4859774819e+02 3.1776863435e+02 1.7300000000e+02 0.0000e+00 -1.0000e+00
       -6  1    1    2    0  504 -5.9647450313e+00 -8.6399191853e+01 +6.7365003749e+02 7.0088071136e+02 1.7300000000e+02 0.0000e+00 1.0000e+00
       21  1    1    2  504  505 +2.5410475162e+01 -4.3507095093e+01 +6.1916242233e+02 6.2120903471e+02 0.0000000000e+00 0.0000e+00 1.0000e+00
       21  1    1    2  505  502 +3.7211090063e+01 +4.2804969864e+01 +1.0375642109e+03 1.0391132866e+03 0.0000000000e+00 0.0000e+00 1.0000e+00
       21  1    1    2  506  501 -2.6306266750e+01 -4.1450991718e+00 +3.9090679004e+01 4.7299922858e+01 0.0000000000e+00 0.0000e+00 1.0000e+00
<mgrwt>
<rscale>  5 0.19634143E+03</rscale>
<asrwt>0</asrwt>
<pdfrwt beam="1">  1       21 0.41110272E+00 0.19634143E+03</pdfrwt>
<pdfrwt beam="2">  1       21 0.83235784E-02 0.19634143E+03</pdfrwt>
<totfact> 0.82650628E+02</totfact>
</mgrwt>
</event>
<event>
 7      1 +1.2632836e+02 1.86313200e+02 7.54677100e-03 1.16780200e-01
       21 -1    0    0  505  502 +0.0000000000e+00 +0.0000000000e+00 +1.8960184637e+02 1.8960184637e+02 0.0000000000e+00 0.0000e+00 1.0000e+00
       21 -1    0    0  502  503 -0.0000000000e+00 -0.0000000000e+00 -9.3258120182e+02 9.3258120182e+02 0.0000000000e+00 0.0000e+00 1.0000e+00
        6  1    1    2  501    0 +7.3845368981e+00 +6.1358434987e+01 -5.5806035966e+02 5.8752000302e+02 1.7300000000e+02 0.0000e+00 1.0000e+00
       -6  1    1    2    0  503 -9.5692718693e+01 -5.4758895606e+01 -3.0575528064e+02 3.6819957183e+02 1.7300000000e+02 0.0000e+00 1.0000e+00
       21  1    1    2  504  501 +4.0587009546e+01 -7.1142612551e+00 +6.2696303853e+00 4.1680047052e+01 0.0000000000e+00 0.0000e+00 1.0000e+00
       21  1    1    2  505  506 +2.6488333464e+01 -4.0900805402e+00 +7.4983004904e+01 7.9629213188e+01 0.0000000000e+00 0.0000e+00 1.0000e+00
       21  1    1    2  506  504 +2.1232838785e+01 +4.6048024140e+00 +3.9583649554e+01 4.5154213094e+01 0.0000000000e+00 0.0000e+00 1.0000e+00
<mgrwt>
<rscale>  5 0.18631322E+03</rscale>
<asrwt>0</asrwt>
<pdfrwt beam="1">  1       21 0.29169515E-01 0.18631322E+03</pdfrwt>
<pdfrwt beam="2">  1       21 0.14347403E+00 0.18631322E+03</pdfrwt>
<totfact> 0.38002939E+03</totfact>
</mgrwt>
</event>
<event>
 7      1 +1.2632836e+02 2.57749600e+02 7.54677100e-03 1.15393800e-01
       21 -1    0    0  501  502 +0.0000000000e+00 +0.0000000000e+00 +5.5760201730e+02 5.5760201730e+02 0.0000000000e+00 0.0000e+00 -1.0000e+00
       21 -1    0    0  505  503 -0.0000000000e+00 -0.0000000000e+00 -1.1182385734e+03 1.1182385734e+03 0.0000000000e+00 0.0000e+00 1.0000e+00
        6  1    1    2  501    0 -4.0968063480e+01 +2.2458722042e+02 +6.3584038962e+01 2.9341051756e+02 1.7300000000e+02 0.0000e+00 1.0000e+00
       -6  1    1    2    0  504 +1.2213624660e+02 -1.7411096151e+02 -5.0471523786e+02 5.7436779243e+02 1.7300000000e+02 0.0000e+00 1.0000e+00
       21  1    1    2  504  506 -5.5665059602e+01 +3.1020324696e+01 -6.3019250587e+01 8.9623017966e+01 0.0000000000e+00 0.0000e+00 1.0000e+00
       21  1    1    2  505  502 +3.9860283637e+00 -5.0810883963e+01 +3.2783287920e+02 3.3177105213e+02 0.0000000000e+00 0.0000e+00 -1.0000e+00
       21  1    1    2  506  503 -2.9489151880e+01 -3.0685699642e+01 -3.8431898580e+02 3.8666821060e+02 0.0000000000e+00 0.0000e+00 1.0000e+00
<mgrwt>
<rscale>  5 0.25774958E+03</rscale>
<asrwt>0</asrwt>
<pdfrwt beam="1">  1       21 0.85784928E-01 0.25774958E+03</pdfrwt>
<pdfrwt beam="2">  1       21 0.17203670E+00 0.25774958E+03</pdfrwt>
<totfact> 0.22533925E+02</totfact>
</mgrwt>
</event>
<event>
 7      1 +1.2632836e+02 1.73671600e+02 7.54677100e-03 1.09564600e-01
       21 -1    0    0  501  502 +0.0000000000e+00 +0.0000000000e+00 +1.8638392827e+03 1.8638392827e+03 0.0000000000e+00 0.0000e+00 1.0000e+00
       21 -1    0    0  504  503 -0.0000000000e+00 -0.0000000000e+00 -2.5324909514e+02 2.5324909514e+02 0.0000000000e+00 0.0000e+00 1.0000e+00
        6  1    1    2  501    0 -4.6617019605e+01 -2.9305543275e+01 +2.6178431970e+00 1.8157041192e+02 1.7300000000e+02 0.0000e+00 -1.0000e+00
       -6  1    1    2    0  503 -4.8647270684e+01 +7.7686394495e+00 -6.8937251626e+01 1.9263502632e+02 1.7300000000e+02 0.0000e+00 1.0000e+00
       21  1    1    2  504  505 -2.7816970067e+01 -4.9635293786e+01 +9.6942796810e-02 5.6898643313e+01 0.0000000000e+00 0.0000e+00 1.0000e+00
       21  1    1    2  505  506 +1.0370446031e+02 +5.3802324363e+01 +7.7132432222e+02 7.8012211559e+02 0.0000000000e+00 0.0000e+00 1.0000e+00
       21  1    1    2  506  502 +1.9376800044e+01 +1.7369873248e+01 +9.0548833094e+02 9.0586218065e+02 0.0000000000e+00 0.0000e+00 1.0000e+00
<mgrwt>
<rscale>  5 0.17367162E+03</rscale>
<asrwt>0</asrwt>
<pdfrwt beam="1">  1       21 0.28674450E+00 0.17367162E+03</pdfrwt>
<pdfrwt beam="2">  1       21 0.38961400E-01 0.17367162E+03</pdfrwt>
<totfact> 0.26629828E+02</totfact>
</mgrwt>
</event>
<event>
 7      1 +1.2632836e+02 5.99576500e+02 7.54677100e-03 1.11889400e-01
       21 -1    0    0  501  502 +0.0000000000e+00 +0.0000000000e+00 +1.3561420241e+03 1.3561420241e+03 0.0000000000e+00 0.0000e+00 1.0000e+00
       21 -1    0    0  506  503 -0.0000000000e+00 -0.0000000000e+00 -1.0590529836e+03 1.0590529836e+03 0.0000000000e+00 0.0000e+00 1.0000e+00
        6  1    1    2  501    0 +2.8943357358e+01 -1.1159309719e+02 +7.1160627748e+02 7.4135229913e+02 1.7300000000e+02 0.0000e+00 -1.0000e+00
       -6  1    1    2    0  503 +3.1805295008e+02 -4.7877663301e+02 +4.6063122526e+01 6.0202620760e+02 1.7300000000e+02 0.0000e+00 1.0000e+00
       21  1    1    2  504  505 -3.0737686800e+01 +2.4689340492e+00 -5.7217560337e+01 6.4998078710e+01 0.0000000000e+00 0.0000e+00 1.0000e+00
       21  1    1    2  505  502 -2.0166851620e+02 +5.5369548384e+02 -3.3239823836e+00 5.8928764463e+02 0.0000000000e+00 0.0000e+00 1.0000e+00
       21  1    1    2  506  504 -1.1459010443e+02 +3.4205312317e+01 -4.0003881669e+02 4.1753077765e+02 0.0000000000e+00 0.0000e+00 1.0000e+00
<mgrwt>
<rscale>  5 0.45955028E+03</rscale>
<asrwt>0</asrwt>
<pdfrwt beam="1">  1       21 0.20863724E+00 0.59957653E+03</pdfrwt>
<pdfrwt beam="2">  1       21 0.16293123E+00 0.59957653E+03</pdfrwt>
<totfact> 0.19816490E+01</totfact>
</mgrwt>
</event>
<event>
 7      1 +1.2632836e+02 3.19329500e+02 7.54677100e-03 1.16780200e-01
       21 -1    0    0  501  502 +0.0000000000e+00 +0.0000000000e+00 +8.6639342230e+02 8.6639342230e+02 0.0000000000e+00 0.0000e+00 1.0000e+00
       21 -1    0    0  506  503 -0.0000000000e+00 -0.0000000000e+00 -4.6661985448e+02 4.6661985448e+02 0.0000000000e+00 0.0000e+00 1.0000e+00
        6  1    1    2  501    0 -3.0460578876e+02 +5.3072204329e+00 +1.8979168589e+02 3.9845041997e+02 1.7300000000e+02 0.0000e+00 1.0000e+00
       -6  1    1    2    0  503 +1.0390259037e+01 -8.2922234002e+01 -2.7549412944e+02 3.3587210323e+02 1.7300000000e+02 0.0000e+00 1.0000e+00
       21  1    1    2  504  502 +6.1870818396e+01 +8.5010346924e+01 +2.0890767480e+02 2.3387426931e+02 0.0000000000e+00 0.0000e+00 1.0000e+00
       21  1    1    2  505  504 +2.4027036981e+01 +1.2139623404e+01 +1.8877090845e+01 3.2878770069e+01 0.0000000000e+00 0.0000e+00 1.0000e+00
       21  1    1    2  506  505 +2.0831767435e+02 -1.9534956759e+01 +2.5769124573e+02 3.3193771420e+02 0.0000000000e+00 0.0000e+00 1.0000e+00
<mgrwt>
<rscale>  5 0.28068795E+03</rscale>
<asrwt>0</asrwt>
<pdfrwt beam="1">  1       21 0.13329130E+00 0.31932950E+03</pdfrwt>
<pdfrwt beam="2">  1       21 0.71787670E-01 0.31932950E+03</pdfrwt>
<totfact> 0.63931449E+02</totfact>
</mgrwt>
</event>
<event>
 7      1 +1.2632836e+02 2.08850700e+02 7.54677100e-03 1.17219800e-01
       21 -1    0    0  503  502 +0.0000000000e+00 +0.0000000000e+00 +2.5453401344e+02 2.5453401344e+02 0.0000000000e+00 0.0000e+00 -1.0000e+00
       21 -1    0    0  501  503 -0.0000000000e+00 -0.0000000000e+00 -1.3861975682e+03 1.3861975682e+03 0.0000000000e+00 0.0000e+00 1.0000e+00
        6  1    1    2  501    0 +4.5753570532e+01 -1.2706654840e+02 -1.0882825319e+03 1.1101924006e+03 1.7300000000e+02 0.0000e+00 -1.0000e+00
       -6  1    1    2    0  504 +6.1153258941e+01 +6.9060954912e+01 -1.9668357577e+02 2.7770949849e+02 1.7300000000e+02 0.0000e+00 -1.0000e+00
       21  1    1    2  504  506 -2.5190766069e+01 +1.0854872972e+01 -2.4331756211e+01 3.6666569552e+01 0.0000000000e+00 0.0000e+00 -1.0000e+00
       21  1    1    2  505  502 +5.6097240778e+00 +3.4399852140e+01 +5.3639608072e+01 6.3968948605e+01 0.0000000000e+00 0.0000e+00 -1.0000e+00
       21  1    1    2  506  505 -8.7325787481e+01 +1.2750868380e+01 +1.2399470106e+02 1.5219416446e+02 0.0000000000e+00 0.0000e+00 -1.0000e+00
<mgrwt>
<rscale>  5 0.20885072E+03</rscale>
<asrwt>0</asrwt>
<pdfrwt beam="1">  1       21 0.39159078E-01 0.20885072E+03</pdfrwt>
<pdfrwt beam="2">  1       21 0.21326117E+00 0.20885072E+03</pdfrwt>
<totfact> 0.68309668E+02</totfact>
</mgrwt>
</event>
<event>
 7      1 +1.2632836e+02 2.44912800e+02 7.54677100e-03 1.04234700e-01
       21 -1    0    0  504  502 +0.0000000000e+00 +0.0000000000e+00 +7.2766995941e+02 7.2766995941e+02 0.0000000000e+00 0.0000e+00 -1.0000e+00
       21 -1    0    0  506  503 -0.0000000000e+00 -0.0000000000e+00 -1.1196769687e+03 1.1196769687e+03 0.0000000000e+00 0.0000e+00 1.0000e+00
        6  1    1    2  501    0 +1.7197512161e+02 -2.6552694347e+01 +1.4819060315e+02 2.8665300084e+02 1.7300000000e+02 0.0000e+00 -1.0000e+00
       -6  1    1    2    0  502 -1.2725001830e+02 +1.0325763981e+02 +1.8170050538e+01 2.3898505826e+02 1.7300000000e+02 0.0000e+00 -1.0000e+00
       21  1    1    2  504  505 -1.7396997882e+00 -5.3669658712e+01 +1.9682367231e+02 2.0401719732e+02 0.0000000000e+00 0.0000e+00 -1.0000e+00
       21  1    1    2  505  503 +2.6090208692e+01 -6.3298508020e+01 +1.7300431354e+02 1.8605884180e+02 0.0000000000e+00 0.0000e+00 -1.0000e+00
       21  1    1    2  506  501 -6.9075612211e+01 +4.0263221265e+01 -9.2819564888e+02 9.3163282992e+02 0.0000000000e+00 0.0000e+00 1.0000e+00
<mgrwt>
<rscale>  5 0.24491276E+03</rscale>
<asrwt>0</asrwt>
<pdfrwt beam="1">  1       21 0.11194923E+00 0.24491276E+03</pdfrwt>
<pdfrwt beam="2">  1       21 0.17225799E+00 0.24491276E+03</pdfrwt>
<totfact> 0.12075035E+02</totfact>
</mgrwt>
</event>
<event>
 7      1 +1.2632836e+02 1.98208100e+02 7.54677100e-03 1.07609100e-01
       21 -1    0    0  501  502 +0.0000000000e+00 +0.0000000000e+00 +1.7167030385e+03 1.7167030385e+03 0.0000000000e+00 0.0000e+00 -1.0000e+00
       21 -1    0    0  504  503 -0.0000000000e+00 -0.0000000000e+00 -4.0044378370e+02 4.0044378370e+02 0.0000000000e+00 0.0000e+00 -1.0000e+00
        6  1    1    2  501    0 +1.7457310596e+02 +4.8613093180e+01 +3.6935438074e+02 4.4630780939e+02 1.7300000000e+02 0.0000e+00 1.0000e+00
       -6  1    1    2    0  503 -8.6438923155e+01 -2.8172662305e+00 +6.8536522490e+01 2.0519717186e+02 1.7300000000e+02 0.0000e+00 1.0000e+00
       21  1    1    2  504  506 +2.9169006420e+01 -9.5608759467e+00 -2.8942376688e+02 2.9104700329e+02 0.0000000000e+00 0.0000e+00 -1.0000e+00
       21  1    1    2  505  502 -2.1427526231e+01 -1.1973257382e+01 +3.4678429148e+02 3.4765189859e+02 0.0000000000e+00 0.0000e+00 1.0000e+00
       21  1    1    2  506  505 -9.5875662993e+01 -2.4261693621e+01 +8.2100782699e+02 8.2694293909e+02 0.0000000000e+00 0.0000e+00 -1.0000e+00
<mgrwt>
<rscale>  5 0.19820815E+03</rscale>
<asrwt>0</asrwt>
<pdfrwt beam="1">  1       21 0.26410816E+00 0.19820815E+03</pdfrwt>
<pdfrwt beam="2">  1       21 0.61606737E-01 0.19820815E+03</pdfrwt>
<totfact> 0.13350867E+02</totfact>
</mgrwt>
</event>
<event>
 7      1 +1.2632836e+02 1.86912200e+02 7.54677100e-03 1.03604800e-01
       21 -1    0    0  501  502 +0.0000000000e+00 +0.0000000000e+00 +7.6715535844e+02 7.6715535844e+02 0.0000000000e+00 0.0000e+00 1.0000e+00
       21 -1    0    0  505  503 -0.0000000000e+00 -0.0000000000e+00 -5.7269124243e+02 5.7269124243e+02 0.0000000000e+00 0.0000e+00 1.0000e+00
        6  1    1    2  501    0 +3.1480799289e+01 +6.0658332183e+00 +3.7316169796e+02 4.1256088991e+02 1.7300000000e+02 0.0000e+00 1.0000e+00
       -6  1    1    2    0  504 -1.4310191188e+02 +1.0254036634e+01 +3.1178794990e+02 3.8434883655e+02 1.7300000000e+02 0.0000e+00 1.0000e+00
       21  1    1    2  504  503 -1.7233395588e+01 +1.5726853426e+01 -1.4256963010e+01 2.7341997667e+01 0.0000000000e+00 0.0000e+00 1.0000e+00
       21  1    1    2  505  506 +1.0334399770e+02 -8.4423194482e+01 -3.8380828807e+02 4.0634475464e+02 0.0000000000e+00 0.0000e+00 1.0000e+00
       21  1    1    2  506  502 +2.5510510477e+01 +5.2376471204e+01 -9.2420280777e+01 1.0925012210e+02 0.0000000000e+00 0.0000e+00 1.0000e+00
<mgrwt>
<rscale>  5 0.18691223E+03</rscale>
<asrwt>0</asrwt>
<pdfrwt beam="1">  1       21 0.11802390E+00 0.18691223E+03</pdfrwt>
<pdfrwt beam="2">  1       21 0.88106344E-01 0.18691223E+03</pdfrwt>
<totfact> 0.61103129E+02</totfact>
</mgrwt>
</event>
<event>
 7      1 +1.2632836e+02 2.99706500e+02 7.54677100e-03 1.11732000e-01
       21 -1    0    0  505  502 +0.0000000000e+00 +0.0000000000e+00 +3.2443535490e+02 3.2443535490e+02 0.0000000000e+00 0.0000e+00 -1.0000e+00
       21 -1    0    0  501  503 -0.0000000000e+00 -0.0000000000e+00 -6.9805516185e+02 6.9805516185e+02 0.0000000000e+00 0.0000e+00 1.0000e+00
        6  1    1    2  501    0 +1.9927746486e+02 +8.0480455181e+01 -1.6980466778e+02 3.2396178304e+02 1.7300000000e+02 0.0000e+00 1.0000e+00
       -6  1    1    2    0  504 -2.3778462197e+02 -1.5272180594e+02 +3.5359800205e+01 3.3323383971e+02 1.7300000000e+02 0.0000e+00 -1.0000e+00
       21  1    1    2  504  502 +1.8405958068e+01 -5.6900367873e+01 -6.2978610861e+00 6.0133968859e+01 0.0000000000e+00 0.0000e+00 -1.0000e+00
       21  1    1    2  505  506 +2.8277833451e+01 +4.7517085430e+01 +3.0501690165e+00 5.5378811864e+01 0.0000000000e+00 0.0000e+00 -1.0000e+00
       21  1    1    2  506  503 -8.1766344072e+00 +8.1624633204e+01 -2.3592724730e+02 2.4978211328e+02 0.0000000000e+00 0.0000e+00 1.0000e+00
<mgrwt>
<rscale>  5 0.29970652E+03</rscale>
<asrwt>0</asrwt>
<pdfrwt beam="1">  1       21 0.49913132E-01 0.29970652E+03</pdfrwt>
<pdfrwt beam="2">  1       21 0.10739310E+00 0.29970652E+03</pdfrwt>
<totfact> 0.24506969E+03</totfact>
</mgrwt>
</event>
<event>
 7      1 +1.2632836e+02 2.26666600e+02 7.54677100e-03 1.12597700e-01
       21 -1    0    0  501  502 +0.0000000000e+00 +0.0000000000e+00 +4.6058843290e+02 4.6058843290e+02 0.0000000000e+00 0.0000e+00 -1.0000e+00
       21 -1    0    0  504  503 -0.0000000000e+00 -0.0000000000e+00 -4.9717728206e+02 4.9717728206e+02 0.0000000000e+00 0.0000e+00 1.0000e+00
        6  1    1    2  501    0 +9.5245214408e+01 -1.6252066726e+02 -3.9309393931e+01 2.5876407518e+02 1.7300000000e+02 0.0000e+00 1.0000e+00
       -6  1    1    2    0  506 +6.9759919119e+01 +1.3134090515e+02 -1.4849494335e+02 2.7220695781e+02 1.7300000000e+02 0.0000e+00 -1.0000e+00
       21  1    1    2  504  505 -2.2055910243e+01 +7.0355544956e+00 +5.8034602745e+00 2.3867181544e+01 0.0000000000e+00 0.0000e+00 -1.0000e+00
       21  1    1    2  505  502 -1.2873769113e+02 +7.4918094051e+00 +2.5789231674e+02 2.8833655225e+02 0.0000000000e+00 0.0000e+00 -1.0000e+00
       21  1    1    2  506  503 -1.4211532155e+01 +1.6652398211e+01 -1.1248028891e+02 1.1459094818e+02 0.0000000000e+00 0.0000e+00 -1.0000e+00
<mgrwt>
<rscale>  5 0.22666658E+03</rscale>
<asrwt>0</asrwt>
<pdfrwt beam="1">  1       21 0.70859758E-01 0.22666658E+03</pdfrwt>
<pdfrwt beam="2">  1       21 0.76488813E-01 0.22666658E+03</pdfrwt>
<totfact> 0.26688310E+03</totfact>
</mgrwt>
</event>
<event>
 7      1 +1.2632836e+02 3.71634000e+02 7.54677100e-03 1.03604800e-01
       21 -1    0    0  501  502 +0.0000000000e+00 +0.0000000000e+00 +8.4738990588e+02 8.4738990588e+02 0.0000000000e+00 0.0000e+00 -1.0000e+00
       21 -1    0    0  504  503 -0.0000000000e+00 -0.0000000000e+00 -6.6856737932e+02 6.6856737932e+02 0.0000000000e+00 0.0000e+00 1.0000e+00
        6  1    1    2  501    0 -2.2792135128e+02 +2.3222714625e+02 +3.3045911341e+02 4.9498466185e+02 1.7300000000e+02 0.0000e+00 -1.0000e+00
       -6  1    1    2    0  503 +3.1951280393e+02 -1.3486457160e+02 +3.1033747953e+02 4.9650300678e+02 1.7300000000e+02 0.0000e+00 -1.0000e+00
       21  1    1    2  504  506 -7.1910093897e+00 -3.2390497283e+01 -1.3873498225e+02 1.4264729311e+02 0.0000000000e+00 0.0000e+00 1.0000e+00
       21  1    1    2  505  502 -4.9573079134e+01 +5.4900028801e+01 -8.3644905211e+01 1.1166008018e+02 0.0000000000e+00 0.0000e+00 -1.0000e+00
       21  1    1    2  506  505 -3.4827364119e+01 -1.1987210617e+02 -2.3959417891e+02 2.7016224328e+02 0.0000000000e+00 0.0000e+00 1.0000e+00
<mgrwt>
<rscale>  5 0.37163405E+03</rscale>
<asrwt>0</asrwt>
<pdfrwt beam="1">  1       21 0.13036768E+00 0.37163405E+03</pdfrwt>
<pdfrwt beam="2">  1       21 0.10285652E+00 0.37163405E+03</pdfrwt>
<totfact> 0.28322264E+02</totfact>
</mgrwt>
</event>
<event>
 7      1 +1.2632836e+02 1.84221800e+02 7.54677100e-03 1.04234700e-01
       21 -1    0    0  505  502 +0.0000000000e+00 +0.0000000000e+00 +1.8639270364e+02 1.8639270364e+02 0.0000000000e+00 0.0000e+00 -1.0000e+00
       21 -1    0    0  506  503 -0.0000000000e+00 -0.0000000000e+00 -1.0298747356e+03 1.0298747356e+03 0.0000000000e+00 0.0000e+00 -1.0000e+00
        6  1    1    2  501    0 +1.0005090830e+02 -2.9180949533e+01 -3.6845031415e+01 2.0530043450e+02 1.7300000000e+02 0.0000e+00 -1.0000e+00
       -6  1    1    2    0  502 -6.4086167837e+01 +1.1173486498e+01 -2.3674442101e+02 3.0034780603e+02 1.7300000000e+02 0.0000e+00 -1.0000e+00
       21  1    1    2  504  503 -4.3490385590e+01 +3.7677041867e+01 +2.5360038783e+01 6.2881672128e+01 0.0000000000e+00 0.0000e+00 -1.0000e+00
       21  1    1    2  505  504 -2.1334305921e+01 -1.6686295471e+01 +1.8818979057e+01 3.2980888988e+01 0.0000000000e+00 0.0000e+00 1.0000e+00
       21  1    1    2  506  501 +2.8859951046e+01 -2.9832833611e+00 -6.1407159738e+02 6.1475663759e+02 0.0000000000e+00 0.0000e+00 -1.0000e+00
<mgrwt>
<rscale>  5 0.18422182E+03</rscale>
<asrwt>0</asrwt>
<pdfrwt beam="1">  1       21 0.28675800E-01 0.18422182E+03</pdfrwt>
<pdfrwt beam="2">  1       21 0.15844227E+00 0.18422182E+03</pdfrwt>
<totfact> 0.30300196E+03</totfact>
</mgrwt>
</event>
<event>
 7      1 +1.2632836e+02 1.73332600e+02 7.54677100e-03 1.16597700e-01
       21 -1    0    0  505  502 +0.0000000000e+00 +0.0000000000e+00 +1.9850343652e+02 1.9850343652e+02 0.0000000000e+00 0.0000e+00 1.0000e+00
       21 -1    0    0  504  503 -0.0000000000e+00 -0.0000000000e+00 -6.3028895949e+02 6.3028895949e+02 0.0000000000e+00 0.0000e+00 1.0000e+00
        6  1    1    2  501    0 -6.2574592292e+01 +1.2438094046e+01 -9.3025593210e+00 1.8462346382e+02 1.7300000000e+02 0.0000e+00 1.0000e+00
       -6  1    1    2    0  502 -3.6371423285e+01 +2.2679659765e+01 +1.9875326171e+01 1.7933565175e+02 1.7300000000e+02 0.0000e+00 1.0000e+00
       21  1    1    2  504  506 +6.1907432129e+01 -8.0318659356e+00 -1.4016298516e+02 1.5343631718e+02 0.0000000000e+00 0.0000e+00 1.0000e+00
       21  1    1    2  505  503 +1.2581072048e+01 -1.8392679287e+01 -2.6558775322e+02 2.6652097232e+02 0.0000000000e+00 0.0000e+00 1.0000e+00
       21  1    1    2  506  501 +2.4457511400e+01 -8.6932085878e+00 -3.6607551444e+01 4.4875990932e+01 0.0000000000e+00 0.0000e+00 1.0000e+00
<mgrwt>
<rscale>  5 0.17333261E+03</rscale>
<asrwt>0</asrwt>
<pdfrwt beam="1">  1       21 0.30538991E-01 0.17333261E+03</pdfrwt>
<pdfrwt beam="2">  1       21 0.96967531E-01 0.17333261E+03</pdfrwt>
<totfact> 0.92159836E+03</totfact>
</mgrwt>
</event>
<event>
 7      1 +1.2632836e+02 1.75185200e+02 7.54677100e-03 1.14097200e-01
       21 -1    0    0  506  502 +0.0000000000e+00 +0.0000000000e+00 +1.6251185971e+03 1.6251185971e+03 0.0000000000e+00 0.0000e+00 1.0000e+00
       21 -1    0    0  505  503 -0.0000000000e+00 -0.0000000000e+00 -3.5047453076e+02 3.5047453076e+02 0.0000000000e+00 0.0000e+00 1.0000e+00
        6  1    1    2  501    0 -1.0556836572e+02 -1.5585881760e+01 +5.3726033959e+02 5.7442603706e+02 1.7300000000e+02 0.0000e+00 1.0000e+00
       -6  1    1    2    0  502 -2.6871335380e+01 -2.8324342094e+01 +8.2603698743e+02 8.4486119666e+02 1.7300000000e+02 0.0000e+00 1.0000e+00
       21  1    1    2  504  501 +8.7725885615e+01 +4.4950226258e+00 +6.9629527973e+01 1.1209062138e+02 0.0000000000e+00 0.0000e+00 1.0000e+00
       21  1    1    2  505  504 +2.4315134600e+01 +4.0531105293e+01 -2.9865110439e+02 3.0236811740e+02 0.0000000000e+00 0.0000e+00 1.0000e+00
       21  1    1    2  506  503 +2.0398680887e+01 -1.1159040648e+00 +1.4036831578e+02 1.4184715541e+02 0.0000000000e+00 0.0000e+00 -1.0000e+00
<mgrwt>
<rscale>  5 0.17518519E+03</rscale>
<asrwt>0</asrwt>
<pdfrwt beam="1">  1       21 0.25001824E+00 0.17518519E+03</pdfrwt>
<pdfrwt beam="2">  1       21 0.53919160E-01 0.17518519E+03</pdfrwt>
<totfact> 0.22198435E+02</totfact>
</mgrwt>
</event>
<event>
 7      1 +1.2632836e+02 1.77911300e+02 7.54677100e-03 1.14767800e-01
       21 -1    0    0  505  502 +0.0000000000e+00 +0.0000000000e+00 +8.3007503059e+01 8.3007503059e+01 0.0000000000e+00 0.0000e+00 -1.0000e+00
       21 -1    0    0  501  503 -0.0000000000e+00 -0.0000000000e+00 -1.1944472934e+03 1.1944472934e+03 0.0000000000e+00 0.0000e+00 -1.0000e+00
        6  1    1    2  501    0 -4.0935574332e+01 +3.6919002881e+01 -8.5057057840e+02 8.6973446686e+02 1.7300000000e+02 0.0000e+00 -1.0000e+00
       -6  1    1    2    0  506 +1.1669009268e+01 +5.8344991104e+01 -1.3185987958e+02 2.2551348431e+02 1.7300000000e+02 0.0000e+00 -1.0000e+00
       21  1    1    2  504  502 +5.5880260051e+00 -2.4479444823e+01 -4.2811572812e+01 4.9631643335e+01 0.0000000000e+00 0.0000e+00 1.0000e+00
       21  1    1    2  505  503 -2.2024345732e+01 -1.6514202336e+01 -1.2365304236e+01 3.0177664465e+01 0.0000000000e+00 0.0000e+00 -1.0000e+00
       21  1    1    2  506  504 +4.5702884791e+01 -5.4270346826e+01 -7.3832455300e+01 1.0239753746e+02 0.0000000000e+00 0.0000e+00 -1.0000e+00
<mgrwt>
<rscale>  5 0.17791132E+03</rscale>
<asrwt>0</asrwt>
<pdfrwt beam="1">  1       21 0.12770386E-01 0.17791132E+03</pdfrwt>
<pdfrwt beam="2">  1       21 0.18376112E+00 0.17791132E+03</pdfrwt>
<totfact> 0.91198324E+03</totfact>
</mgrwt>
</event>
<event>
 7      1 +1.2632836e+02 1.92574200e+02 7.54677100e-03 1.13555300e-01
       21 -1    0    0  505  502 +0.0000000000e+00 +0.0000000000e+00 +1.5175901270e+02 1.5175901270e+02 0.0000000000e+00 0.0000e+00 -1.0000e+00
       21 -1    0    0  502  503 -0.0000000000e+00 -0.0000000000e+00 -6.7317319521e+02 6.7317319521e+02 0.0000000000e+00 0.0000e+00 -1.0000e+00
        6  1    1    2  501    0 +1.6126711822e+01 -7.3716534476e+01 -1.8501761821e+02 2.6430043007e+02 1.7300000000e+02 0.0000e+00 -1.0000e+00
       -6  1    1    2    0  504 +4.7292091150e+01 +9.4452781441e+01 -3.1305284719e+02 3.7294631643e+02 1.7300000000e+02 0.0000e+00 1.0000e+00
       21  1    1    2  504  503 -8.0578140287e+00 -1.9347034921e+01 -9.1535144655e+01 9.3903774334e+01 0.0000000000e+00 0.0000e+00 -1.0000e+00
       21  1    1    2  505  506 -2.1760405582e+01 -1.6484507097e+01 +2.5013479355e+01 3.7026049948e+01 0.0000000000e+00 0.0000e+00 -1.0000e+00
       21  1    1    2  506  501 -3.3600583362e+01 +1.5095295054e+01 +4.3177948188e+01 5.6755637118e+01 0.0000000000e+00 0.0000e+00 -1.0000e+00
<mgrwt>
<rscale>  5 0.19257421E+03</rscale>
<asrwt>0</asrwt>
<pdfrwt beam="1">  1       21 0.23347541E-01 0.19257421E+03</pdfrwt>
<pdfrwt beam="2">  1       21 0.10356511E+00 0.19257421E+03</pdfrwt>
<totfact> 0.13028264E+04</totfact>
</mgrwt>
</event>
<event>
 7      1 +1.2632836e+02 2.84501800e+02 7.54677100e-03 1.10963500e-01
       21 -1    0    0  505  502 +0.0000000000e+00 +0.0000000000e+00 +1.1933900057e+02 1.1933900057e+02 0.0000000000e+00 0.0000e+00 1.0000e+00
       21 -1    0    0  506  503 -0.0000000000e+00 -0.0000000000e+00 -1.7147028582e+03 1.7147028582e+03 0.0000000000e+00 0.0000e+00 -1.0000e+00
        6  1    1    2  501    0 +2.5177536949e+02 +7.1717377980e+01 -4.2979152398e+02 5.3215032939e+02 1.7300000000e+02 0.0000e+00 -1.0000e+00
       -6  1    1    2    0  504 -2.0690133539e+02 -2.3398228830e-01 -2.3983049283e+02 3.6090979846e+02 1.7300000000e+02 0.0000e+00 1.0000e+00
       21  1    1    2  504  502 -4.2860355571e+01 -2.6020206134e+01 -1.3957948692e+02 1.4831215181e+02 0.0000000000e+00 0.0000e+00 -1.0000e+00
       21  1    1    2  505  503 +2.0171226792e+01 -3.9204051466e-01 -5.8437491076e+02 5.8472306985e+02 0.0000000000e+00 0.0000e+00 -1.0000e+00
       21  1    1    2  506  501 -2.2184905318e+01 -4.5071149044e+01 -2.0178744310e+02 2.0794650922e+02 0.0000000000e+00 0.0000e+00 -1.0000e+00
<mgrwt>
<rscale>  5 0.28450184E+03</rscale>
<asrwt>0</asrwt>
<pdfrwt beam="1">  1       21 0.18359847E-01 0.28450184E+03</pdfrwt>
<pdfrwt beam="2">  1       21 0.26380043E+00 0.28450184E+03</pdfrwt>
<totfact> 0.13624766E+03</totfact>
</mgrwt>
</event>
<event>
 7      1 +1.2632836e+02 2.27744500e+02 7.54677100e-03 1.09732700e-01
       21 -1    0    0  501  502 +0.0000000000e+00 +0.0000000000e+00 +5.3893604881e+02 5.3893604881e+02 0.0000000000e+00 0.0000e+00 -1.0000e+00
       21 -1    0    0  504  503 -0.0000000000e+00 -0.0000000000e+00 -3.6536892015e+02 3.6536892015e+02 0.0000000000e+00 0.0000e+00 -1.0000e+00
        6  1    1    2  501    0 +4.3838644779e+01 +9.8868250900e+01 +3.2265802529e+01 2.0655953095e+02 1.7300000000e+02 0.0000e+00 -1.0000e+00
       -6  1    1    2    0  503 -5.2951341217e+01 +1.3481284855e+02 +2.7238949189e+02 3.5369956738e+02 1.7300000000e+02 0.0000e+00 -1.0000e+00
       21  1    1    2  504  506 +7.8522507928e+01 -3.5209893810e+01 -4.8575959006e+01 9.8818746535e+01 0.0000000000e+00 0.0000e+00 -1.0000e+00
       21  1    1    2  505  502 -3.7196010115e+01 -2.6258422481e+01 -4.8931433092e+01 6.6838110866e+01 0.0000000000e+00 0.0000e+00 -1.0000e+00
       21  1    1    2  506  505 -3.2213801375e+01 -1.7221278316e+02 -3.3580773668e+01 1.7838901323e+02 0.0000000000e+00 0.0000e+00 -1.0000e+00
<mgrwt>
<rscale>  5 0.21991648E+03</rscale>
<asrwt>0</asrwt>
<pdfrwt beam="1">  1       21 0.82913239E-01 0.22774452E+03</pdfrwt>
<pdfrwt beam="2">  1       21 0.56210603E-01 0.22774452E+03</pdfrwt>
<totfact> 0.36753594E+03</totfact>
</mgrwt>
</event>
<event>
 7      1 +1.2632836e+02 3.84879200e+02 7.54677100e-03 1.10132700e-01
       21 -1    0    0  504  502 +0.0000000000e+00 +0.0000000000e+00 +7.0984235754e+02 7.0984235754e+02 0.0000000000e+00 0.0000e+00 -1.0000e+00
       21 -1    0    0  505  503 -0.0000000000e+00 -0.0000000000e+00 -1.3540932734e+03 1.3540932734e+03 0.0000000000e+00 0.0000e+00 1.0000e+00
        6  1    1    2  501    0 -4.1541276797e+02 +1.6123909213e+00 -2.5455435812e+02 5.1700801622e+02 1.7300000000e+02 0.0000e+00 1.0000e+00
       -6  1    1    2    0  506 +3.2378248228e+02 +2.8728792746e+01 +2.1144671088e+02 4.2461647508e+02 1.7300000000e+02 0.0000e+00 -1.0000e+00
       21  1    1    2  504  501 -2.7600554926e-02 -2.1391526809e+01 +2.5010350743e+02 2.5101665803e+02 0.0000000000e+00 0.0000e+00 -1.0000e+00
       21  1    1    2  505  502 +3.4653141103e+01 +1.4829984269e+01 -3.1215997622e+01 4.8940853377e+01 0.0000000000e+00 0.0000e+00 1.0000e+00
       21  1    1    2  506  503 +5.7004745136e+01 -2.3779641127e+01 -8.2003077845e+02 8.2235362825e+02 0.0000000000e+00 0.0000e+00 1.0000e+00
<mgrwt>
<rscale>  5 0.38487924E+03</rscale>
<asrwt>0</asrwt>
<pdfrwt beam="1">  1       21 0.10920652E+00 0.38487924E+03</pdfrwt>
<pdfrwt beam="2">  1       21 0.20832204E+00 0.38487924E+03</pdfrwt>
<totfact> 0.64806917E+01</totfact>
</mgrwt>
</event>
<event>
 7      1 +1.2632836e+02 1.82379900e+02 7.54677100e-03 1.07609100e-01
       21 -1    0    0  505  502 +0.0000000000e+00 +0.0000000000e+00 +2.1976820194e+03 2.1976820194e+03 0.0000000000e+00 0.0000e+00 1.0000e+00
       21 -1    0    0  506  503 -0.0000000000e+00 -0.0000000000e+00 -1.5385243801e+02 1.5385243801e+02 0.0000000000e+00 0.0000e+00 -1.0000e+00
        6  1    1    2  501    0 -2.8436020673e+01 +3.7471492408e+01 +1.2516785892e+03 1.2644528503e+03 1.7300000000e+02 0.0000e+00 1.0000e+00
       -6  1    1    2    0  504 +4.0605520524e+01 -2.1306902900e+01 +1.9595524956e+02 2.6538698581e+02 1.7300000000e+02 0.0000e+00 1.0000e+00
       21  1    1    2  504  503 -4.3941068486e+00 -3.2834795513e+01 -1.0853324588e+02 1.1347641796e+02 0.0000000000e+00 0.0000e+00 -1.0000e+00
       21  1    1    2  505  501 +2.2143544973e+01 +9.2282439001e+00 +5.4576946556e+02 5.4629644573e+02 0.0000000000e+00 0.0000e+00 1.0000e+00
       21  1    1    2  506  502 -2.9918937975e+01 +7.4419621046e+00 +1.5895952298e+02 1.6192175764e+02 0.0000000000e+00 0.0000e+00 1.0000e+00
<mgrwt>
<rscale>  5 0.18237987E+03</rscale>
<asrwt>0</asrwt>
<pdfrwt beam="1">  1       21 0.33810490E+00 0.18237987E+03</pdfrwt>
<pdfrwt beam="2">  1       21 0.23669607E-01 0.18237987E+03</pdfrwt>
<totfact> 0.35105695E+02</totfact>
</mgrwt>
</event>
<event>
 7      1 +1.2632836e+02 2.02447700e+02 7.54677100e-03 1.11732000e-01
       21 -1    0    0  505  502 +0.0000000000e+00 +0.0000000000e+00 +6.6575664280e+02 6.6575664280e+02 0.0000000000e+00 0.0000e+00 1.0000e+00
       21 -1    0    0  501  503 -0.0000000000e+00 -0.0000000000e+00 -1.1201893143e+02 1.1201893143e+02 0.0000000000e+00 0.0000e+00 -1.0000e+00
        6  1    1    2  501    0 +7.6692628152e+01 +1.0180421651e+02 +1.8988750860e+02 2.8676144028e+02 1.7300000000e+02 0.0000e+00 -1.0000e+00
       -6  1    1    2    0  504 -2.7784351956e+00 -1.0373263019e+02 +2.5093829431e+02 3.2197392102e+02 1.7300000000e+02 0.0000e+00 1.0000e+00
       21  1    1    2  504  502 -2.8383986659e+01 -3.7008432470e+01 +2.6234782236e+01 5.3512041369e+01 0.0000000000e+00 0.0000e+00 1.0000e+00
       21  1    1    2  505  506 -1.2254325559e+01 +2.8499596321e+01 +7.0622554331e+01 7.7135858495e+01 0.0000000000e+00 0.0000e+00 1.0000e+00
       21  1    1    2  506  503 -3.3275880739e+01 +1.0437249829e+01 +1.6054571901e+01 3.8392313057e+01 0.0000000000e+00 0.0000e+00 1.0000e+00
<mgrwt>
<rscale>  5 0.20244771E+03</rscale>
<asrwt>0</asrwt>
<pdfrwt beam="1">  1       21 0.10242410E+00 0.20244771E+03</pdfrwt>
<pdfrwt beam="2">  1       21 0.17233682E-01 0.20244771E+03</pdfrwt>
<totfact> 0.23450553E+04</totfact>
</mgrwt>
</event>
<event>
 7      1 +1.2632836e+02 3.81365300e+02 7.54677100e-03 1.12597700e-01
       21 -1    0    0  501  502 +0.0000000000e+00 +0.0000000000e+00 +2.0353545035e+03 2.0353545035e+03 0.0000000000e+00 0.0000e+00 1.0000e+00
       21 -1    0    0  506  503 -0.0000000000e+00 -0.0000000000e+00 -2.7302802539e+02 2.7302802539e+02 0.0000000000e+00 0.0000e+00 1.0000e+00
        6  1    1    2  501    0 -3.8953745682e+02 +1.3711582870e+02 +1.0012679486e+03 1.0968166144e+03 1.7300000000e+02 0.0000e+00 1.0000e+00
       -6  1    1    2    0  503 +9.3886600515e+01 +9.8331187966e+01 -5.5212159879e+01 2.2685038876e+02 1.7300000000e+02 0.0000e+00 1.0000e+00
       21  1    1    2  504  505 +4.9488795833e+01 -1.9052951585e+02 +2.4424228805e+02 3.1369560500e+02 0.0000000000e+00 0.0000e+00 -1.0000e+00
       21  1    1    2  505  502 +2.8729214412e+02 -6.0994173382e+01 +5.4540660917e+02 6.1945575676e+02 0.0000000000e+00 0.0000e+00 1.0000e+00
       21  1    1    2  506  504 -4.1130083646e+01 +1.6076672562e+01 +2.6621792076e+01 5.1564163862e+01 0.0000000000e+00 0.0000e+00 1.0000e+00
<mgrwt>
<rscale>  5 0.32901594E+03</rscale>
<asrwt>0</asrwt>
<pdfrwt beam="1">  1       21 0.31313145E+00 0.38136531E+03</pdfrwt>
<pdfrwt beam="2">  1       21 0.42004313E-01 0.38136531E+03</pdfrwt>
<totfact> 0.12687211E+02</totfact>
</mgrwt>
</event>
<event>
 7      1 +1.2632836e+02 2.21199200e+02 7.54677100e-03 1.17264400e-01
       21 -1    0    0  506  502 +0.0000000000e+00 +0.0000000000e+00 +5.4340767458e+02 5.4340767458e+02 0.0000000000e+00 0.0000e+00 1.0000e+00
       21 -1    0    0  501  503 -0.0000000000e+00 -0.0000000000e+00 -1.6165438970e+02 1.6165438970e+02 0.0000000000e+00 0.0000e+00 1.0000e+00
        6  1    1    2  501    0 +2.3427458564e+01 -1.5828122001e+02 +1.0407315675e+02 2.5760825371e+02 1.7300000000e+02 0.0000e+00 1.0000e+00
       -6  1    1    2    0  502 +3.8848660548e+01 +1.2654382902e+02 +1.8550897161e+02 2.8612084447e+02 1.7300000000e+02 0.0000e+00 1.0000e+00
       21  1    1    2  504  505 -1.7300131481e+01 +1.5664233703e+01 +1.0933746288e+01 2.5772263670e+01 0.0000000000e+00 0.0000e+00 1.0000e+00
       21  1    1    2  505  503 +1.9447910970e+00 +2.4221200948e+01 -1.4738156941e+01 2.8419395803e+01 0.0000000000e+00 0.0000e+00 -1.0000e+00
       21  1    1    2  506  504 -4.6920778729e+01 -8.1480436655e+00 +9.5975567183e+01 1.0714130664e+02 0.0000000000e+00 0.0000e+00 -1.0000e+00
<mgrwt>
<rscale>  5 0.22119922E+03</rscale>
<asrwt>0</asrwt>
<pdfrwt beam="1">  1       21 0.83601180E-01 0.22119922E+03</pdfrwt>
<pdfrwt beam="2">  1       21 0.24869906E-01 0.22119922E+03</pdfrwt>
<totfact> 0.18716912E+04</totfact>
</mgrwt>
</event>
<event>
 7      1 +1.2632836e+02 2.59834800e+02 7.54677100e-03 1.10132700e-01
       21 -1    0    0  504  502 +0.0000000000e+00 +0.0000000000e+00 +1.2903167557e+03 1.2903167557e+03 0.0000000000e+00 0.0000e+00 -1.0000e+00
       21 -1    0    0  505  503 -0.0000000000e+00 -0.0000000000e+00 -2.2939283779e+03 2.2939283779e+03 0.0000000000e+00 0.0000e+00 1.0000e+00
        6  1    1    2  501    0 -4.7435249276e+01 -1.8752786012e+02 +1.1230244221e+02 2.8276781946e+02 1.7300000000e+02 0.0000e+00 -1.0000e+00
       -6  1    1    2    0  506 +9.1063546980e+01 +1.2586305520e+02 -2.3659281941e+02 3.3172163097e+02 1.7300000000e+02 0.0000e+00 1.0000e+00
       21  1    1    2  504  501 -2.3964936487e+01 -1.6431517846e+01 +1.0316500162e+03 1.0320591403e+03 0.0000000000e+00 0.0000e+00 -1.0000e+00
       21  1    1    2  505  502 -3.8895846457e+01 +3.6061662090e+01 -4.0706652708e+01 6.6860765169e+01 0.0000000000e+00 0.0000e+00 1.0000e+00
       21  1    1    2  506  503 +1.9232485239e+01 +4.2034660677e+01 -1.8702646086e+03 1.8708357777e+03 0.0000000000e+00 0.0000e+00 1.0000e+00
<mgrwt>
<rscale>  5 0.25983477E+03</rscale>
<asrwt>0</asrwt>
<pdfrwt beam="1">  1       21 0.19851027E+00 0.25983477E+03</pdfrwt>
<pdfrwt beam="2">  1       21 0.35291206E+00 0.25983477E+03</pdfrwt>
<totfact> 0.20121436E+00</totfact>
</mgrwt>
</event>
<event>
 7      1 +1.2632836e+02 1.73225600e+02 7.54677100e-03 1.10132700e-01
       21 -1    0    0  501  502 +0.0000000000e+00 +0.0000000000e+00 +5.4530062188e+02 5.4530062188e+02 0.0000000000e+00 0.0000e+00 -1.0000e+00
       21 -1    0    0  504  503 -0.0000000000e+00 -0.0000000000e+00 -5.2414812404e+02 5.2414812404e+02 0.0000000000e+00 0.0000e+00 1.0000e+00
        6  1    1    2  501    0 +3.5301327026e+01 +5.8680761710e+01 +2.2330835912e+01 1.8739605577e+02 1.7300000000e+02 0.0000e+00 1.0000e+00
       -6  1    1    2    0  505 +1.7100282166e+01 +5.1196270236e+01 +1.2945338388e+02 2.2271204802e+02 1.7300000000e+02 0.0000e+00 -1.0000e+00
       21  1    1    2  504  502 -2.5699983031e+00 -7.5852129252e+01 +2.4049069893e+02 2.5218232824e+02 0.0000000000e+00 0.0000e+00 -1.0000e+00
       21  1    1    2  505  506 -5.1974278311e+01 -9.0537886853e+00 -2.2037290972e+01 5.7174635013e+01 0.0000000000e+00 0.0000e+00 -1.0000e+00
       21  1    1    2  506  503 +2.1426674215e+00 -2.4971114008e+01 -3.4908512991e+02 3.4998367888e+02 0.0000000000e+00 0.0000e+00 1.0000e+00
<mgrwt>
<rscale>  5 0.17322558E+03</rscale>
<asrwt>0</asrwt>
<pdfrwt beam="1">  1       21 0.83892403E-01 0.17322558E+03</pdfrwt>
<pdfrwt beam="2">  1       21 0.80638173E-01 0.17322558E+03</pdfrwt>
<totfact> 0.16996183E+03</totfact>
</mgrwt>
</event>
<event>
 7      1 +1.2632836e+02 3.00226600e+02 7.54677100e-03 1.17219800e-01
       21 -1    0    0  505  502 +0.0000000000e+00 +0.0000000000e+00 +1.2939674102e+03 1.2939674102e+03 0.0000000000e+00 0.0000e+00 -1.0000e+00
       21 -1    0    0  501  503 -0.0000000000e+00 -0.0000000000e+00 -2.6503527582e+02 2.6503527582e+02 0.0000000000e+00 0.0000e+00 -1.0000e+00
        6  1    1    2  501    0 -1.8756470505e+02 +5.9562124760e+01 +3.8516016395e+02 4.6583850976e+02 1.7300000000e+02 0.0000e+00 -1.0000e+00
       -6  1    1    2    0  504 +2.6130523262e+02 +4.6831616009e+01 -7.0510650227e+01 3.2461419662e+02 1.7300000000e+02 0.0000e+00 -1.0000e+00
       21  1    1    2  504  502 -8.9508160499e+01 -3.4267785955e+01 +6.7156353114e+01 1.1702977277e+02 0.0000000000e+00 0.0000e+00 -1.0000e+00
       21  1    1    2  505  506 +3.3538922640e+00 -4.0982035578e+01 +3.0599900596e+02 3.0874936029e+02 0.0000000000e+00 0.0000e+00 -1.0000e+00
       21  1    1    2  506  503 +1.2413740659e+01 -3.1143919236e+01 +3.4112726157e+02 3.4277084655e+02 0.0000000000e+00 0.0000e+00 -1.0000e+00
<mgrwt>
<rscale>  5 0.30022664E+03</rscale>
<asrwt>0</asrwt>
<pdfrwt beam="1">  1       21 0.19907191E+00 0.30022664E+03</pdfrwt>
<pdfrwt beam="2">  1       21 0.40774659E-01 0.30022664E+03</pdfrwt>
<totfact> 0.71353030E+02</totfact>
</mgrwt>
</event>
<event>
 7      1 +1.2632836e+02 2.57591500e+02 7.54677100e-03 1.12597700e-01
       21 -1    0    0  501  502 +0.0000000000e+00 +0.0000000000e+00 +7.1334848447e+02 7.1334848447e+02 0.0000000000e+00 0.0000e+00 -1.0000e+00
       21 -1    0    0  504  503 -0.0000000000e+00 -0.0000000000e+00 -1.6255011458e+02 1.6255011458e+02 0.0000000000e+00 0.0000e+00 1.0000e+00
        6  1    1    2  501    0 +8.6874024480e+01 -1.4349569861e+02 +2.1557415428e+02 3.2332542066e+02 1.7300000000e+02 0.0000e+00 -1.0000e+00
       -6  1    1    2    0  506 -2.8589566679e+01 +2.2159632207e+02 +2.9567674147e+02 4.0899392260e+02 1.7300000000e+02 0.0000e+00 -1.0000e+00
       21  1    1    2  504  505 -4.3001714707e+01 -4.0477304813e+01 -2.1068579716e+01 6.2701233830e+01 0.0000000000e+00 0.0000e+00 1.0000e+00
       21  1    1    2  505  502 -1.9204463707e+01 -1.6312093163e+01 +5.1570063768e+01 5.7396579051e+01 0.0000000000e+00 0.0000e+00 -1.0000e+00
       21  1    1    2  506  503 +3.9217206127e+00 -2.1311225487e+01 +9.0459900920e+00 2.3481442909e+01 0.0000000000e+00 0.0000e+00 1.0000e+00
<mgrwt>
<rscale>  5 0.25759154E+03</rscale>
<asrwt>0</asrwt>
<pdfrwt beam="1">  1       21 0.10974592E+00 0.25759154E+03</pdfrwt>
<pdfrwt beam="2">  1       21 0.25007710E-01 0.25759154E+03</pdfrwt>
<totfact> 0.95379157E+03</totfact>
</mgrwt>
</event>
<event>
 7      1 +1.2632836e+02 3.02549200e+02 7.54677100e-03 1.06933500e-01
       21 -1    0    0  505  502 +0.0000000000e+00 +0.0000000000e+00 +3.5658843474e+02 3.5658843474e+02 0.0000000000e+00 0.0000e+00 1.0000e+00
       21 -1    0    0  504  503 -0.0000000000e+00 -0.0000000000e+00 -3.3773979928e+03 3.3773979928e+03 0.0000000000e+00 0.0000e+00 1.0000e+00
        6  1    1    2  501    0 -1.1548745700e+02 +1.5415784742e+02 +2.0713102003e+02 3.3156334856e+02 1.7300000000e+02 0.0000e+00 1.0000e+00
       -6  1    1    2    0  502 +7.0210026895e+01 -4.6181314402e+02 -1.4202026833e+03 1.5050267404e+03 1.7300000000e+02 0.0000e+00 1.0000e+00
       21  1    1    2  504  506 +2.1725887110e+01 +2.9701262554e+01 -3.3547344442e+01 4.9795617148e+01 0.0000000000e+00 0.0000e+00 1.0000e+00
       21  1    1    2  505  503 -1.6271063829e+01 +2.3256124384e+02 -1.7719017022e+03 1.7871723817e+03 0.0000000000e+00 0.0000e+00 1.0000e+00
       21  1    1    2  506  501 +3.9822606828e+01 +4.5392790211e+01 -2.2888482337e+00 6.0428339742e+01 0.0000000000e+00 0.0000e+00 1.0000e+00
<mgrwt>
<rscale>  5 0.30254920E+03</rscale>
<asrwt>0</asrwt>
<pdfrwt beam="1">  1       21 0.54859761E-01 0.30254920E+03</pdfrwt>
<pdfrwt beam="2">  1       21 0.51959968E+00 0.30254920E+03</pdfrwt>
<totfact> 0.35514237E+00</totfact>
</mgrwt>
</event>
<event>
 7      1 +1.2632836e+02 4.23499000e+02 7.54677100e-03 1.17264400e-01
       21 -1    0    0  504  502 +0.0000000000e+00 +0.0000000000e+00 +3.9217950170e+02 3.9217950170e+02 0.0000000000e+00 0.0000e+00 -1.0000e+00
       21 -1    0    0  501  503 -0.0000000000e+00 -0.0000000000e+00 -9.1570050066e+02 9.1570050066e+02 0.0000000000e+00 0.0000e+00 -1.0000e+00
        6  1    1    2  501    0 +3.6970685061e+02 -5.2732417264e+01 +1.2343874836e+02 4.2968591764e+02 1.7300000000e+02 0.0000e+00 -1.0000e+00
       -6  1    1    2    0  506 -3.9270322989e+02 +8.3576457494e+01 -5.2073825178e+02 6.7992512667e+02 1.7300000000e+02 0.0000e+00 -1.0000e+00
       21  1    1    2  504  505 -4.0637144663e+00 -2.3988152742e+01 -5.7154655432e+01 6.2117629420e+01 0.0000000000e+00 0.0000e+00 1.0000e+00
       21  1    1    2  505  503 +1.0989560443e+01 -2.7665660893e+01 -9.4798399405e+01 9.9362446433e+01 0.0000000000e+00 0.0000e+00 -1.0000e+00
       21  1    1    2  506  502 +1.6070533305e+01 +2.0809773404e+01 +2.5731559296e+01 3.6788882202e+01 0.0000000000e+00 0.0000e+00 1.0000e+00
<mgrwt>
<rscale>  5 0.42349903E+03</rscale>
<asrwt>0</asrwt>
<pdfrwt beam="1">  1       21 0.60335308E-01 0.42349903E+03</pdfrwt>
<pdfrwt beam="2">  1       21 0.14087700E+00 0.42349903E+03</pdfrwt>
<totfact> 0.76765384E+02</totfact>
</mgrwt>
</event>
<event>
 7      1 +1.2632836e+02 2.00276000e+02 7.54677100e-03 1.04234700e-01
       21 -1    0    0  504  502 +0.0000000000e+00 +0.0000000000e+00 +3.8367875866e+02 3.8367875866e+02 0.0000000000e+00 0.0000e+00 -1.0000e+00
       21 -1    0    0  506  503 -0.0000000000e+00 -0.0000000000e+00 -8.2470483168e+02 8.2470483168e+02 0.0000000000e+00 0.0000e+00 1.0000e+00
        6  1    1    2  501    0 -4.0179096808e+01 +5.0813211228e+01 -1.8556744129e+01 1.8566015999e+02 1.7300000000e+02 0.0000e+00 1.0000e+00
       -6  1    1    2    0  502 -1.1260537336e+02 -9.6183396128e+01 +1.9285922417e+02 2.9842066977e+02 1.7300000000e+02 0.0000e+00 -1.0000e+00
       21  1    1    2  504  505 +8.8550042318e+01 +5.9700762691e+01 -4.4976209540e+00 1.0689022245e+02 0.0000000000e+00 0.0000e+00 -1.0000e+00
       21  1    1    2  505  503 +3.1464291316e+01 -1.5168134521e+01 -1.0786718885e+02 1.1338167560e+02 0.0000000000e+00 0.0000e+00 -1.0000e+00
       21  1    1    2  506  501 +3.2770136538e+01 +8.3755673021e-01 -5.0296374326e+02 5.0403086253e+02 0.0000000000e+00 0.0000e+00 1.0000e+00
<mgrwt>
<rscale>  5 0.20027605E+03</rscale>
<asrwt>0</asrwt>
<pdfrwt beam="1">  1       21 0.59027501E-01 0.20027605E+03</pdfrwt>
<pdfrwt beam="2">  1       21 0.12687767E+00 0.20027605E+03</pdfrwt>
<totfact> 0.12239123E+03</totfact>
</mgrwt>
</event>
<event>
 7      1 +1.2632836e+02 1.95107800e+02 7.54677100e-03 1.16001000e-01
       21 -1    0    0  501  502 +0.0000000000e+00 +0.0000000000e+00 +5.2300106155e+02 5.2300106155e+02 0.0000000000e+00 0.0000e+00 1.0000e+00
       21 -1    0    0  502  503 -0.0000000000e+00 -0.0000000000e+00 -4.2551250199e+02 4.2551250199e+02 0.0000000000e+00 0.0000e+00 1.0000e+00
        6  1    1    2  501    0 -7.6419069871e+01 +1.1542020756e+02 +2.2258595022e+02 3.1406242021e+02 1.7300000000e+02 0.0000e+00 1.0000e+00
       -6  1    1    2    0  505 -4.9796876383e+01 -4.9357626615e+01 +7.9355785650e+01 2.0283551198e+02 1.7300000000e+02 0.0000e+00 1.0000e+00
       21  1    1    2  504  506 +8.7058690183e+01 +7.1049883996e+01 +2.7235953446e+01 1.1562481876e+02 0.0000000000e+00 0.0000e+00 1.0000e+00
       21  1    1    2  505  504 +9.3705331603e+01 -3.8808742680e+01 -1.2533712173e+02 1.6123337670e+02 0.0000000000e+00 0.0000e+00 1.0000e+00
       21  1    1    2  506  503 -5.4548075532e+01 -9.8303722260e+01 -1.0635200802e+02 1.5475743589e+02 0.0000000000e+00 0.0000e+00 1.0000e+00
<mgrwt>
<rscale>  5 0.19510781E+03</rscale>
<asrwt>0</asrwt>
<pdfrwt beam="1">  1       21 0.80461702E-01 0.19510781E+03</pdfrwt>
<pdfrwt beam="2">  1       21 0.65463462E-01 0.19510781E+03</pdfrwt>
<totfact> 0.29073763E+03</totfact>
</mgrwt>
</event>
<event>
 7      1 +1.2632836e+02 1.74777900e+02 7.54677100e-03 1.15490700e-01
       21 -1    0    0  504  502 +0.0000000000e+00 +0.0000000000e+00 +4.2175435460e+02 4.2175435460e+02 0.0000000000e+00 0.0000e+00 -1.0000e+00
       21 -1    0    0  505  503 -0.0000000000e+00 -0.0000000000e+00 -2.0542073082e+02 2.0542073082e+02 0.0000000000e+00 0.0000e+00 1.0000e+00
        6  1    1    2  501    0 +1.7997100203e+01 -3.7787305729e+01 +2.1206179109e+02 2.7685913265e+02 1.7300000000e+02 0.0000e+00 -1.0000e+00
       -6  1    1    2    0  502 +2.7427696313e+01 +2.2736006469e+01 +8.7281928760e+01 1.9701862755e+02 1.7300000000e+02 0.0000e+00 1.0000e+00
       21  1    1    2  504  506 +2.7644946613e+00 +2.9994178569e+01 +1.2925214781e+01 3.2777345162e+01 0.0000000000e+00 0.0000e+00 -1.0000e+00
       21  1    1    2  505  501 -2.9539516809e+01 +3.6946981010e-01 -9.1284033566e+01 9.5945267446e+01 0.0000000000e+00 0.0000e+00 1.0000e+00
       21  1    1    2  506  503 -1.8649774368e+01 -1.5312349119e+01 -4.6512772901e+00 2.4574712612e+01 0.0000000000e+00 0.0000e+00 1.0000e+00
<mgrwt>
<rscale>  5 0.17477795E+03</rscale>
<asrwt>0</asrwt>
<pdfrwt beam="1">  1       21 0.64885285E-01 0.17477795E+03</pdfrwt>
<pdfrwt beam="2">  1       21 0.31603190E-01 0.17477795E+03</pdfrwt>
<totfact> 0.21284800E+04</totfact>
</mgrwt>
</event>
<event>
 7      1 +1.2632836e+02 1.75231400e+02 7.54677100e-03 1.13539700e-01
       21 -1    0    0  506  502 +0.0000000000e+00 +0.0000000000e+00 +8.3889212248e+02 8.3889212248e+02 0.0000000000e+00 0.0000e+00 -1.0000e+00
       21 -1    0    0  505  503 -0.0000000000e+00 -0.0000000000e+00 -1.5490409159e+02 1.5490409159e+02 0.0000000000e+00 0.0000e+00 1.0000e+00
        6  1    1    2  501    0 -2.1965479392e+01 +3.6922023846e+01 +4.2770487055e+01 1.8331402754e+02 1.7300000000e+02 0.0000e+00 1.0000e+00
       -6  1    1    2    0  503 -1.4770798925e+01 -1.8888176471e+01 +3.7205457490e+01 1.7857263446e+02 1.7300000000e+02 0.0000e+00 1.0000e+00
       21  1    1    2  504  501 +7.1685106366e+01 -2.0982726266e+01 +1.3017946932e+02 1.5008572053e+02 0.0000000000e+00 0.0000e+00 -1.0000e+00
       21  1    1    2  505  502 -4.9465412240e+01 -2.1912330232e+01 +3.7503485196e+02 3.7891703236e+02 0.0000000000e+00 0.0000e+00 -1.0000e+00
       21  1    1    2  506  504 +1.4516584192e+01 +2.4861209123e+01 +9.8797765064e+01 1.0290679918e+02 0.0000000000e+00 0.0000e+00 -1.0000e+00
<mgrwt>
<rscale>  5 0.17523140E+03</rscale>
<asrwt>0</asrwt>
<pdfrwt beam="1">  1       21 0.12906032E+00 0.17523140E+03</pdfrwt>
<pdfrwt beam="2">  1       21 0.23831399E-01 0.17523140E+03</pdfrwt>
<totfact> 0.74055992E+03</totfact>
</mgrwt>
</event>
<event>
 7      1 +1.2632836e+02 1.97639800e+02 7.54677100e-03 1.12438200e-01
       21 -1    0    0  503  502 +0.0000000000e+00 +0.0000000000e+00 +1.3155103816e+03 1.3155103816e+03 0.0000000000e+00 0.0000e+00 1.0000e+00
       21 -1    0    0  505  503 -0.0000000000e+00 -0.0000000000e+00 -1.0142767713e+03 1.0142767713e+03 0.0000000000e+00 0.0000e+00 -1.0000e+00
        6  1    1    2  501    0 -6.8826556500e+01 -4.7802541076e+01 +5.5445499271e+02 5.8683176188e+02 1.7300000000e+02 0.0000e+00 -1.0000e+00
       -6  1    1    2    0  506 +5.3001030970e+01 +9.9665697027e+01 +6.5587174134e+02 6.8763297008e+02 1.7300000000e+02 0.0000e+00 1.0000e+00
       21  1    1    2  504  501 -2.2394554121e+01 +3.1639099691e+01 -5.7609439073e+01 6.9436274049e+01 0.0000000000e+00 0.0000e+00 -1.0000e+00
       21  1    1    2  505  504 +6.2957443607e+00 -8.8916778452e+01 -9.1248231103e+02 9.1682593649e+02 0.0000000000e+00 0.0000e+00 -1.0000e+00
       21  1    1    2  506  502 +3.1924335290e+01 +5.4145228104e+00 +6.0998626362e+01 6.9060210389e+01 0.0000000000e+00 0.0000e+00 1.0000e+00
<mgrwt>
<rscale>  5 0.19763978E+03</rscale>
<asrwt>0</asrwt>
<pdfrwt beam="1">  1       21 0.20238621E+00 0.19763978E+03</pdfrwt>
<pdfrwt beam="2">  1       21 0.15604258E+00 0.19763978E+03</pdfrwt>
<totfact> 0.34617004E+01</totfact>
</mgrwt>
</event>
<event>
 7      1 +1.2632836e+02 1.82941000e+02 7.54677100e-03 1.11889400e-01
       21 -1    0    0  501  502 +0.0000000000e+00 +0.0000000000e+00 +3.1541160030e+03 3.1541160030e+03 0.0000000000e+00 0.0000e+00 -1.0000e+00
       21 -1    0    0  505  503 -0.0000000000e+00 -0.0000000000e+00 -5.4424902589e+02 5.4424902589e+02 0.0000000000e+00 0.0000e+00 1.0000e+00
        6  1    1    2  501    0 +1.5696597854e+01 +6.1657015680e+01 +1.4523300554e+03 1.4639807241e+03 1.7300000000e+02 0.0000e+00 -1.0000e+00
       -6  1    1    2    0  506 -1.1980299802e+02 +7.9115307721e+01 +3.6977227483e+02 4.3274995723e+02 1.7300000000e+02 0.0000e+00 1.0000e+00
       21  1    1    2  504  503 -3.7749584555e+01 -4.0256397710e+01 -1.5965075393e+02 1.6892001634e+02 0.0000000000e+00 0.0000e+00 1.0000e+00
       21  1    1    2  505  502 +2.9986725899e+01 -1.3436417209e+01 +1.2751807929e+03 1.2756040905e+03 0.0000000000e+00 0.0000e+00 -1.0000e+00
       21  1    1    2  506  504 +1.1186925882e+02 -8.7079508482e+01 -3.2776539203e+02 3.5711024079e+02 0.0000000000e+00 0.0000e+00 1.0000e+00
<mgrwt>
<rscale>  5 0.18294099E+03</rscale>
<asrwt>0</asrwt>
<pdfrwt beam="1">  1       21 0.48524861E+00 0.18294099E+03</pdfrwt>
<pdfrwt beam="2">  1       21 0.83730621E-01 0.18294099E+03</pdfrwt>
<totfact> 0.30483852E+00</totfact>
</mgrwt>
</event>
<event>
 7      1 +1.2632836e+02 1.90393200e+02 7.54677100e-03 1.11674500e-01
       21 -1    0    0  505  502 +0.0000000000e+00 +0.0000000000e+00 +8.2416925622e+02 8.2416925622e+02 0.0000000000e+00 0.0000e+00 -1.0000e+00
       21 -1    0    0  502  503 -0.0000000000e+00 -0.0000000000e+00 -2.3776931262e+02 2.3776931262e+02 0.0000000000e+00 0.0000e+00 1.0000e+00
        6  1    1    2  501    0 -2.8994353523e+01 +3.8415835734e+01 -9.0605900843e+01 2.0113398082e+02 1.7300000000e+02 0.0000e+00 1.0000e+00
       -6  1    1    2    0  503 +1.1230154334e+02 -6.7397152383e+01 +1.2125076698e+02 2.4856540644e+02 1.7300000000e+02 0.0000e+00 -1.0000e+00
       21  1    1    2  504  506 -4.2349212334e+01 -1.2661341955e+00 +4.2544842252e+01 6.0042672187e+01 0.0000000000e+00 0.0000e+00 -1.0000e+00
       21  1    1    2  505  504 -2.5738778197e+01 +8.9021497305e+00 +5.2337230574e+02 5.2408043599e+02 0.0000000000e+00 0.0000e+00 -1.0000e+00
       21  1    1    2  506  501 -1.5219199285e+01 +2.1345301115e+01 -1.0162070531e+01 2.8116073411e+01 0.0000000000e+00 0.0000e+00 -1.0000e+00
<mgrwt>
<rscale>  5 0.19039318E+03</rscale>
<asrwt>0</asrwt>
<pdfrwt beam="1">  1       21 0.12679527E+00 0.19039318E+03</pdfrwt>
<pdfrwt beam="2">  1       21 0.36579895E-01 0.19039318E+03</pdfrwt>
<totfact> 0.33240186E+03</totfact>
</mgrwt>
</event>
<event>
 7      1 +1.2632836e+02 3.29066900e+02 7.54677100e-03 1.13555300e-01
       21 -1    0    0  501  502 +0.0000000000e+00 +0.0000000000e+00 +1.3338471644e+03 1.3338471644e+03 0.0000000000e+00 0.0000e+00 1.0000e+00
       21 -1    0    0  504  503 -0.0000000000e+00 -0.0000000000e+00 -5.6054138042e+02 5.6054138042e+02 0.0000000000e+00 0.0000e+00 1.0000e+00
        6  1    1    2  501    0 +1.5234096045e+02 -1.2995919911e+02 -1.4012977559e+02 2.9943699784e+02 1.7300000000e+02 0.0000e+00 1.0000e+00
       -6  1    1    2    0  503 +9.9453156759e+01 +6.4776209521e+00 -2.7800452143e+02 3.4226949017e+02 1.7300000000e+02 0.0000e+00 1.0000e+00
       21  1    1    2  504  505 -1.1527147591e+01 -3.2650286019e+01 +1.0834715835e+01 3.6280950594e+01 0.0000000000e+00 0.0000e+00 1.0000e+00
       21  1    1    2  505  506 -2.5445017955e+01 +3.8841231336e+01 +1.4441095196e+02 1.5169249565e+02 0.0000000000e+00 0.0000e+00 1.0000e+00
       21  1    1    2  506  502 -2.1482195167e+02 +1.1729063284e+02 +1.0361944132e+03 1.0647086105e+03 0.0000000000e+00 0.0000e+00 1.0000e+00
<mgrwt>
<rscale>  5 0.28936046E+03</rscale>
<asrwt>0</asrwt>
<pdfrwt beam="1">  1       21 0.20520726E+00 0.32906695E+03</pdfrwt>
<pdfrwt beam="2">  1       21 0.86237136E-01 0.32906695E+03</pdfrwt>
<totfact> 0.12477204E+02</totfact>
</mgrwt>
</event>
<event>
 7      1 +1.2632836e+02 1.92476200e+02 7.54677100e-03 1.04234700e-01
       21 -1    0    0  504  502 +0.0000000000e+00 +0.0000000000e+00 +1.6179475601e+02 1.6179475601e+02 0.0000000000e+00 0.0000e+00 1.0000e+00
       21 -1    0    0  501  503 -0.0000000000e+00 -0.0000000000e+00 -9.5181220020e+02 9.5181220020e+02 0.0000000000e+00 0.0000e+00 -1.0000e+00
        6  1    1    2  501    0 +4.2371434383e+01 -3.8550046564e+01 -3.3843754451e+02 3.8438316310e+02 1.7300000000e+02 0.0000e+00 1.0000e+00
       -6  1    1    2    0  502 -1.3328960085e+02 -7.4688693209e+01 -4.5625080834e+02 5.1131039369e+02 1.7300000000e+02 0.0000e+00 -1.0000e+00
       21  1    1    2  504  505 +5.6498066254e+01 +8.5089826899e+01 +1.5876238601e+00 1.0215101900e+02 0.0000000000e+00 0.0000e+00 1.0000e+00
       21  1    1    2  505  506 +5.0723678580e+01 +8.3193012579e+00 +4.3864688116e+01 6.7573761221e+01 0.0000000000e+00 0.0000e+00 1.0000e+00
       21  1    1    2  506  503 -1.6303578366e+01 +1.9829611616e+01 -4.0781403308e+01 4.8188619197e+01 0.0000000000e+00 0.0000e+00 1.0000e+00
<mgrwt>
<rscale>  5 0.19247617E+03</rscale>
<asrwt>0</asrwt>
<pdfrwt beam="1">  1       21 0.24891501E-01 0.19247617E+03</pdfrwt>
<pdfrwt beam="2">  1       21 0.14643265E+00 0.19247617E+03</pdfrwt>
<totfact> 0.48636711E+03</totfact>
</mgrwt>
</event>
<event>
 7      1 +1.2632836e+02 1.98748600e+02 7.54677100e-03 1.15490700e-01
       21 -1    0    0  506  502 +0.0000000000e+00 +0.0000000000e+00 +1.0727186252e+02 1.0727186252e+02 0.0000000000e+00 0.0000e+00 -1.0000e+00
       21 -1    0    0  505  503 -0.0000000000e+00 -0.0000000000e+00 -2.0284375233e+03 2.0284375233e+03 0.0000000000e+00 0.0000e+00 1.0000e+00
        6  1    1    2  501    0 +6.1275392141e+01 -1.0273283676e+02 -2.0826113720e+02 2.9599055846e+02 1.7300000000e+02 0.0000e+00 -1.0000e+00
       -6  1    1    2    0  504 -2.7926583859e+01 +7.3226667949e+01 -2.9488694183e+02 3.5075539546e+02 1.7300000000e+02 0.0000e+00 1.0000e+00
       21  1    1    2  504  502 -1.9752476182e+01 -1.8074448267e+01 +1.2054647722e+01 2.9362570173e+01 0.0000000000e+00 0.0000e+00 -1.0000e+00
       21  1    1    2  505  501 -3.6772635628e+01 +4.0573164153e+00 -1.4027306118e+03 1.4032183928e+03 0.0000000000e+00 0.0000e+00 1.0000e+00
       21  1    1    2  506  503 +2.3176303528e+01 +4.3523300662e+01 -2.7341617648e+01 5.6382468918e+01 0.0000000000e+00 0.0000e+00 -1.0000e+00
<mgrwt>
<rscale>  5 0.19874863E+03</rscale>
<asrwt>0</asrwt>
<pdfrwt beam="1">  1       21 0.16503362E-01 0.19874863E+03</pdfrwt>
<pdfrwt beam="2">  1       21 0.31206734E+00 0.19874863E+03</pdfrwt>
<totfact> 0.95023303E+02</totfact>
</mgrwt>
</event>
<event>
 7      1 +1.2632836e+02 1.86002000e+02 7.54677100e-03 1.03361700e-01
       21 -1    0    0  501  502 +0.0000000000e+00 +0.0000000000e+00 +1.3471540950e+02 1.3471540950e+02 0.0000000000e+00 0.0000e+00 -1.0000e+00
       21 -1    0    0  506  503 -0.0000000000e+00 -0.0000000000e+00 -7.6141524529e+02 7.6141524529e+02 0.0000000000e+00 0.0000e+00 -1.0000e+00
        6  1    1    2  501    0 +4.7272005479e+01 -5.8905827406e+00 -1.3408207435e+02 2.2400076814e+02 1.7300000000e+02 0.0000e+00 -1.0000e+00
       -6  1    1    2    0  504 -8.7485325693e+01 +3.6514418294e+01 -1.7308443929e+02 2.6243896067e+02 1.7300000000e+02 0.0000e+00 -1.0000e+00
       21  1    1    2  504  505 -6.0699060006e+01 -9.3863746162e+01 -1.0831148945e+02 1.5564754247e+02 0.0000000000e+00 0.0000e+00 -1.0000e+00
       21  1    1    2  505  503 +8.5252255064e+01 +7.9984382067e+01 -1.6230941941e+02 2.0002448849e+02 0.0000000000e+00 0.0000e+00 1.0000e+00
       21  1    1    2  506  502 +1.5660125156e+01 -1.6744471459e+01 -4.8912413283e+01 5.4018895004e+01 0.0000000000e+00 0.0000e+00 -1.0000e+00
<mgrwt>
<rscale>  5 0.18600203E+03</rscale>
<asrwt>0</asrwt>
<pdfrwt beam="1">  1       21 0.20725447E-01 0.18600203E+03</pdfrwt>
<pdfrwt beam="2">  1       21 0.11714081E+00 0.18600203E+03</pdfrwt>
<totfact> 0.12158343E+04</totfact>
</mgrwt>
</event>
<event>
 7      1 +1.2632836e+02 2.02188900e+02 7.54677100e-03 1.17264400e-01
       21 -1    0    0  506  502 +0.0000000000e+00 +0.0000000000e+00 +8.6909786583e+02 8.6909786583e+02 0.0000000000e+00 0.0000e+00 1.0000e+00
       21 -1    0    0  505  503 -0.0000000000e+00 -0.0000000000e+00 -2.5309838960e+02 2.5309838960e+02 0.0000000000e+00 0.0000e+00 -1.0000e+00
        6  1    1    2  501    0 +1.1216678520e+02 -2.2592317596e+01 +5.8322763588e+02 6.1901153121e+02 1.7300000000e+02 0.0000e+00 1.0000e+00
       -6  1    1    2    0  502 -5.3086576517e+01 +1.7218887158e+01 +5.1775140006e+01 1.8900883525e+02 1.7300000000e+02 0.0000e+00 -1.0000e+00
       21  1    1    2  504  501 -5.4153561787e+01 -4.6808823965e+01 -9.0294623301e+01 1.1522496801e+02 0.0000000000e+00 0.0000e+00 -1.0000e+00
       21  1    1    2  505  504 -1.3958745713e+01 +2.6556080645e+01 -5.8821869776e+01 6.6030934910e+01 0.0000000000e+00 0.0000e+00 -1.0000e+00
       21  1    1    2  506  503 +9.0320988203e+00 +2.5626173759e+01 +1.3011319343e+02 1.3291998606e+02 0.0000000000e+00 0.0000e+00 1.0000e+00
<mgrwt>
<rscale>  5 0.20218889E+03</rscale>
<asrwt>0</asrwt>
<pdfrwt beam="1">  1       21 0.13370736E+00 0.20218889E+03</pdfrwt>
<pdfrwt beam="2">  1       21 0.38938214E-01 0.20218889E+03</pdfrwt>
<totfact> 0.25380635E+03</totfact>
</mgrwt>
</event>
<event>
 7      1 +1.2632836e+02 1.76026000e+02 7.54677100e-03 1.14767800e-01
       21 -1    0    0  505  502 +0.0000000000e+00 +0.0000000000e+00 +1.6382495607e+02 1.6382495607e+02 0.0000000000e+00 0.0000e+00 -1.0000e+00
       21 -1    0    0  501  503 -0.0000000000e+00 -0.0000000000e+00 -9.4112700520e+02 9.4112700520e+02 0.0000000000e+00 0.0000e+00 -1.0000e+00
        6  1    1    2  501    0 -3.1144200997e+00 -6.2842437856e+01 -2.6330079763e+02 3.2127119641e+02 1.7300000000e+02 0.0000e+00 1.0000e+00
       -6  1    1    2    0  504 +4.1875766559e+01 -9.3884800625e+00 -5.6045543121e+02 5.8811649676e+02 1.7300000000e+02 0.0000e+00 -1.0000e+00
       21  1    1    2  504  502 -1.8710192735e+01 -1.9960499355e+01 +2.5459504285e+01 3.7372171533e+01 0.0000000000e+00 0.0000e+00 -1.0000e+00
       21  1    1    2  505  506 -2.6120169964e+01 -1.8068936211e+01 -2.3114287327e+01 3.9281293429e+01 0.0000000000e+00 0.0000e+00 1.0000e+00
       21  1    1    2  506  503 +6.0690162398e+00 +1.1026035348e+02 +4.4108962762e+01 1.1891080315e+02 0.0000000000e+00 0.0000e+00 -1.0000e+00
<mgrwt>
<rscale>  5 0.17602597E+03</rscale>
<asrwt>0</asrwt>
<pdfrwt beam="1">  1       21 0.25203840E-01 0.17602597E+03</pdfrwt>
<pdfrwt beam="2">  1       21 0.14478877E+00 0.17602597E+03</pdfrwt>
<totfact> 0.49608977E+03</totfact>
</mgrwt>
</event>
<event>
 7      1 +1.2632836e+02 2.06559300e+02 7.54677100e-03 1.12597700e-01
       21 -1    0    0  505  502 +0.0000000000e+00 +0.0000000000e+00 +1.8277652216e+02 1.8277652216e+02 0.0000000000e+00 0.0000e+00 1.0000e+00
       21 -1    0    0  502  503 -0.0000000000e+00 -0.0000000000e+00 -1.6105178897e+03 1.6105178897e+03 0.0000000000e+00 0.0000e+00 1.0000e+00
        6  1    1    2  501    0 +7.6183708577e+01 -3.6159102131e+01 +2.8151892376e+01 1.9450698487e+02 1.7300000000e+02 0.0000e+00 1.0000e+00
       -6  1    1    2    0  504 -4.8115864774e+01 +2.1886821932e+02 -4.1063253719e+02 4.9876498922e+02 1.7300000000e+02 0.0000e+00 1.0000e+00
       21  1    1    2  504  506 +8.6364346961e+00 -1.1816014507e+02 -8.2962384859e+02 8.3804065417e+02 0.0000000000e+00 0.0000e+00 1.0000e+00
       21  1    1    2  505  501 -6.0715042235e+01 -5.2378358306e+01 -5.0716087796e+01 9.4878503012e+01 0.0000000000e+00 0.0000e+00 1.0000e+00
       21  1    1    2  506  503 +2.4010763736e+01 -1.2170613818e+01 -1.6492078634e+02 1.6710328058e+02 0.0000000000e+00 0.0000e+00 1.0000e+00
<mgrwt>
<rscale>  5 0.20655935E+03</rscale>
<asrwt>0</asrwt>
<pdfrwt beam="1">  1       21 0.28119465E-01 0.20655935E+03</pdfrwt>
<pdfrwt beam="2">  1       21 0.24777198E+00 0.20655935E+03</pdfrwt>
<totfact> 0.81417091E+02</totfact>
</mgrwt>
</event>
</LesHouchesEvents>
