<LesHouchesEvents version="3.0">
<header>
<!--
#*********************************************************************
#                                                                    *
#                        MadGraph5_aMC@NLO                           *
#                                                                    *
#                           Going Beyond                             *
#                                                                    *
#                   http://madgraph.hep.uiuc.edu                     *
#                   http://madgraph.phys.ucl.ac.be                   *
#                   http://amcatnlo.cern.ch                          *
#                                                                    *
#                     The MadGraph5_aMC@NLO team                     *
#                                                                    *
#....................................................................*
#                                                                    *
# This file contains all the information necessary to reproduce      *
# the events generated:                                              *
#                                                                    *
# 1. software version                                                *
# 2. proc_card          : code generation info including model       *
# 3. param_card         : model primary parameters in the LH format  *
# 4. run_card           : running parameters (collider and cuts)     *
# 5. pythia_card        : present only if pythia has been run        *
# 6. pgs_card           : present only if pgs has been run           *
# 7. delphes_cards      : present only if delphes has been run       *
#                                                                    *
#                                                                    *
#*********************************************************************
-->
<MGVersion>
#3.5.0_lo_vect
</MGVersion>
<MG5ProcCard>
<![CDATA[
#************************************************************
#*                     MadGraph5_aMC@NLO                    *
#*                                                          *
#*                *                       *                 *
#*                  *        * *        *                   *
#*                    * * * * 5 * * * *                     *
#*                  *        * *        *                   *
#*                *                       *                 *
#*                                                          *
#*                                                          *
#*         VERSION 3.5.0_lo_vect         2023-06-09         *
[1;31m#*                                                          *[1;0m
[1;31m#*          WARNING: UNKNOWN DEVELOPMENT VERSION.           *[1;0m
[1;31m#*            WARNING: DO NOT USE FOR PRODUCTION            *[1;0m
[1;31m#*                                                          *[1;0m
#*                                                          *
#*    The MadGraph5_aMC@NLO Development Team - Find us at   *
#*    https://server06.fynu.ucl.ac.be/projects/madgraph     *
#*                                                          *
#************************************************************
#*                                                          *
#*               Command File for MadGraph5_aMC@NLO         *
#*                                                          *
#*     run as ./bin/mg5_aMC  filename                       *
#*                                                          *
#************************************************************
set group_subprocesses Auto
set ignore_six_quark_processes False
set low_mem_multicore_nlo_generation False
set complex_mass_scheme False
set include_lepton_initiated_processes False
set gauge unitary
set loop_optimized_output True
set loop_color_flows False
set max_npoint_for_channel 0
set default_unset_couplings 99
set max_t_for_channel 99
set nlo_mixed_expansion True
set stdout_level DEBUG
set zerowidth_tchannel F
generate g g > t t~ g g
define p = g u c d s u~ c~ d~ s~
define j = g u c d s u~ c~ d~ s~
define l+ = e+ mu+
define l- = e- mu-
define vl = ve vm vt
define vl~ = ve~ vm~ vt~
output madevent CODEGEN_mad_gg_ttgg --hel_recycling=False --vector_siz\
e=16384 --me_exporter=standalone_cudacpp
]]>
</MG5ProcCard>
<MGProcCard>
#*********************************************************************
#                        MadGraph/MadEvent                           *
#                   http://madgraph.hep.uiuc.edu                     *
#                                                                    *
#                          proc_card.dat                             *
#*********************************************************************
#                                                                    *
#            This Files is generated by MADGRAPH 5                   *
#                                                                    *
# WARNING: This Files is generated for MADEVENT (compatibility issue)*
#          This files is NOT a valid MG4 proc_card.dat               *
#          Running this in MG4 will NEVER reproduce the result of MG5*
#                                                                    *
#*********************************************************************
#*********************************************************************
# Process(es) requested : mg2 input                                  *
#*********************************************************************
# Begin PROCESS # This is TAG. Do not modify this line
g g > t t~ g g           #Process
# Be carefull the coupling are here in MG5 convention
          
end_coup           # End the couplings input

done               # this tells MG there are no more procs
# End PROCESS  # This is TAG. Do not modify this line
#*********************************************************************
# Model information                                                  *
#*********************************************************************
# Begin MODEL  # This is TAG. Do not modify this line
sm
# End   MODEL  # This is TAG. Do not modify this line
#*********************************************************************
# Start multiparticle definitions                                    *
#*********************************************************************
# Begin MULTIPARTICLES # This is TAG. Do not modify this line

# End  MULTIPARTICLES # This is TAG. Do not modify this line
</MGProcCard>
<MGRunCard>
<![CDATA[
#*********************************************************************
#                       MadGraph5_aMC@NLO                            *
#                                                                    *
#                     run_card.dat MadEvent                          *
#                                                                    *
#  This file is used to set the parameters of the run.               *
#                                                                    *
#  Some notation/conventions:                                        *
#                                                                    *
#   Lines starting with a '# ' are info or comments                  *
#                                                                    *
#   mind the format:   value    = variable     ! comment             *
#                                                                    *
#   To display more options, you can type the command:               *
#      update to_full                                                *
#*********************************************************************
#                                                                    
#*********************************************************************
# Tag name for the run (one word)                                    *
#*********************************************************************
  tag_1     = run_tag ! name of the run 
#*********************************************************************
# Number of events and rnd seed                                      *
# Warning: Do not generate more than 1M events in a single run       *
#*********************************************************************
  1000 = nevents ! Number of unweighted events requested 
 21 = iseed   ! rnd seed (0=assigned automatically=default))
#*********************************************************************
# Collider type and energy                                           *
# lpp: 0=No PDF, 1=proton, -1=antiproton,                            *
#                2=elastic photon of proton/ion beam                 *
#             +/-3=PDF of electron/positron beam                     *
#             +/-4=PDF of muon/antimuon beam                         *
#*********************************************************************
     1        = lpp1    ! beam 1 type 
     1        = lpp2    ! beam 2 type
     6500.0     = ebeam1  ! beam 1 total energy in GeV
     6500.0     = ebeam2  ! beam 2 total energy in GeV
# To see polarised beam options: type "update beam_pol"

#*********************************************************************
# PDF CHOICE: this automatically fixes alpha_s and its evol.         *
# pdlabel: lhapdf=LHAPDF (installation needed) [1412.7420]           *
#          iww=Improved Weizsaecker-Williams Approx.[hep-ph/9310350] *
#          eva=Effective W/Z/A Approx.       [2111.02442]            *
#          edff=EDFF in gamma-UPC            [eq.(11) in 2207.03012] *
#          chff=ChFF in gamma-UPC            [eq.(13) in 2207.03012] *
#          none=No PDF, same as lhapdf with lppx=0                   *
#*********************************************************************
     nn23lo1    = pdlabel     ! PDF set 
     230000    = lhaid     ! if pdlabel=lhapdf, this is the lhapdf number
# To see heavy ion options: type "update ion_pdf"
#*********************************************************************
# Renormalization and factorization scales                           *
#*********************************************************************
 False = fixed_ren_scale  ! if .true. use fixed ren scale
     False = fixed_fac_scale  ! if .true. use fixed fac scale
 91.188  = scale            ! fixed ren scale
 91.188  = dsqrt_q2fact1    ! fixed fact scale for pdf1
 91.188  = dsqrt_q2fact2    ! fixed fact scale for pdf2
 -1 = dynamical_scale_choice ! Choose one of the preselected dynamical choices
 1.0  = scalefact        ! scale factor for event-by-event scales

 
#*********************************************************************
# Type and output format
#*********************************************************************
  False     = gridpack  !True = setting up the grid pack
  -1.0 = time_of_flight ! threshold (in mm) below which the invariant livetime is not written (-1 means not written)
  average =  event_norm       ! average/sum. Normalization of the weight in the LHEF
# To see MLM/CKKW  merging options: type "update MLM" or "update CKKW"

#*********************************************************************
#
#*********************************************************************
# Phase-Space Optimization strategy (basic options)
#*********************************************************************
   0  = nhel          ! using helicities importance sampling or not.
                             ! 0: sum over helicity, 1: importance sampling
   1  = sde_strategy  ! default integration strategy (hep-ph/2021.00773)
                             ! 1 is old strategy (using amp square)
			     ! 2 is new strategy (using only the denominator)
# To see advanced option for Phase-Space optimization: type "update psoptim"			     
#*********************************************************************
# Customization (custom cuts/scale/bias/...)                         *
# list of files containing fortran function that overwrite default   *
#*********************************************************************
  = custom_fcts ! List of files containing user hook function
#*******************************                                                 
# Parton level cuts definition *
#*******************************
  0.0  = dsqrt_shat ! minimal shat for full process
#                                                                    
#
#*********************************************************************
# BW cutoff (M+/-bwcutoff*Gamma) ! Define on/off-shell for "$" and decay  
#*********************************************************************
  15.0  = bwcutoff      ! (M+/-bwcutoff*Gamma)
#*********************************************************************
# Standard Cuts                                                      *
#*********************************************************************
# Minimum and maximum pt's (for max, -1 means no cut)                *
#*********************************************************************
 20.0  = ptj       ! minimum pt for the jets 
 -1.0  = ptjmax    ! maximum pt for the jets
 {} = pt_min_pdg ! pt cut for other particles (use pdg code). Applied on particle and anti-particle
 {}	= pt_max_pdg ! pt cut for other particles (syntax e.g. {6: 100, 25: 50}) 
#
# For display option for energy cut in the partonic center of mass frame type 'update ecut'
#
#*********************************************************************
# Maximum and minimum absolute rapidity (for max, -1 means no cut)   *
#*********************************************************************
 5.0 = etaj    ! max rap for the jets 
 {} = eta_min_pdg ! rap cut for other particles (use pdg code). Applied on particle and anti-particle
 {} = eta_max_pdg ! rap cut for other particles (syntax e.g. {6: 2.5, 23: 5})
#*********************************************************************
# Minimum and maximum DeltaR distance                                *
#*********************************************************************
 0.4 = drjj    ! min distance between jets 
 -1.0  = drjjmax ! max distance between jets
#*********************************************************************
# Minimum and maximum invariant mass for pairs                       *
#*********************************************************************
 0.0   = mmjj    ! min invariant mass of a jet pair 
 -1.0  = mmjjmax ! max invariant mass of a jet pair
 {} = mxx_min_pdg ! min invariant mass of a pair of particles X/X~ (e.g. {6:250})
 {'default': False} = mxx_only_part_antipart ! if True the invariant mass is applied only 
                       ! to pairs of particle/antiparticle and not to pairs of the same pdg codes.  
#*********************************************************************
# Inclusive cuts                                                     *
#*********************************************************************
 0.0  = ptheavy   ! minimum pt for at least one heavy final state
 0.0  = xptj ! minimum pt for at least one jet  
 #*********************************************************************
 # Control the pt's of the jets sorted by pt                          *
 #*********************************************************************
 0.0   = ptj1min ! minimum pt for the leading jet in pt
 0.0   = ptj2min ! minimum pt for the second jet in pt
 -1.0  = ptj1max ! maximum pt for the leading jet in pt 
 -1.0  = ptj2max ! maximum pt for the second jet in pt
 0   = cutuse  ! reject event if fails any (0) / all (1) jet pt cuts
 #*********************************************************************
 # Control the Ht(k)=Sum of k leading jets                            *
 #*********************************************************************
 0.0   = htjmin ! minimum jet HT=Sum(jet pt)
 -1.0  = htjmax ! maximum jet HT=Sum(jet pt)
 0.0   = ihtmin  !inclusive Ht for all partons (including b)
 -1.0  = ihtmax  !inclusive Ht for all partons (including b)
 #*********************************************************************
 # WBF cuts                                                           *
 #*********************************************************************
 0.0   = xetamin ! minimum rapidity for two jets in the WBF case  
 0.0   = deltaeta ! minimum rapidity for two jets in the WBF case 
#*********************************************************************
# maximal pdg code for quark to be considered as a light jet         *
# (otherwise b cuts are applied)                                     *
#*********************************************************************
 4 = maxjetflavor    ! Maximum jet pdg code
#*********************************************************************
#
#*********************************************************************
# Store info for systematics studies                                 *
# WARNING: Do not use for interference type of computation           *
#*********************************************************************
   True  = use_syst      ! Enable systematics studies
#
systematics = systematics_program ! none, systematics [python], SysCalc [depreceted, C++]
['--mur=0.5,1,2', '--muf=0.5,1,2', '--pdf=errorset'] = systematics_arguments ! see: https://cp3.irmp.ucl.ac.be/projects/madgraph/wiki/Systematics#Systematicspythonmodule

#*********************************************************************
# Options for the cudacpp plugin
#*********************************************************************

# Set cudacpp-specific values of non-cudacpp-specific options
-O3 -ffast-math -fbounds-check = global_flag ! build flags for Fortran code (for a fair comparison to cudacpp)

# New cudacpp-specific options (default values are defined in banner.py)
CUDA = cudacpp_backend ! valid backends are FORTRAN, CPP, CUDA
]]>
</MGRunCard>
<slha>
######################################################################
## PARAM_CARD AUTOMATICALY GENERATED BY MG5 FOLLOWING UFO MODEL   ####
######################################################################
##                                                                  ##
##  Width set on Auto will be computed following the information    ##
##        present in the decay.py files of the model.               ##
##        See  arXiv:1402.1178 for more details.                    ##
##                                                                  ##
######################################################################

###################################
## INFORMATION FOR MASS
###################################
Block mass 
    5 4.700000e+00 # MB 
    6 1.730000e+02 # MT 
   15 1.777000e+00 # MTA 
   23 9.118800e+01 # MZ 
   25 1.250000e+02 # MH 
## Dependent parameters, given by model restrictions.
## Those values should be edited following the 
## analytical expression. MG5 ignores those values 
## but they are important for interfacing the output of MG5
## to external program such as Pythia.
  1 0.000000e+00 # d : 0.0 
  2 0.000000e+00 # u : 0.0 
  3 0.000000e+00 # s : 0.0 
  4 0.000000e+00 # c : 0.0 
  11 0.000000e+00 # e- : 0.0 
  12 0.000000e+00 # ve : 0.0 
  13 0.000000e+00 # mu- : 0.0 
  14 0.000000e+00 # vm : 0.0 
  16 0.000000e+00 # vt : 0.0 
  21 0.000000e+00 # g : 0.0 
  22 0.000000e+00 # a : 0.0 
  24 8.041900e+01 # w+ : cmath.sqrt(MZ__exp__2/2. + cmath.sqrt(MZ__exp__4/4. - (aEW*cmath.pi*MZ__exp__2)/(Gf*sqrt__2))) 

###################################
## INFORMATION FOR SMINPUTS
###################################
Block sminputs 
    1 1.325070e+02 # aEWM1 
    2 1.166390e-05 # Gf 
    3 1.180000e-01 # aS (Note that Parameter not used if you use a PDF set) 

###################################
## INFORMATION FOR YUKAWA
###################################
Block yukawa 
    5 4.700000e+00 # ymb 
    6 1.730000e+02 # ymt 
   15 1.777000e+00 # ymtau 

###################################
## INFORMATION FOR DECAY
###################################
DECAY   6 1.491500e+00 # WT 
DECAY  23 2.441404e+00 # WZ 
DECAY  24 2.047600e+00 # WW 
DECAY  25 6.382339e-03 # WH 
## Dependent parameters, given by model restrictions.
## Those values should be edited following the 
## analytical expression. MG5 ignores those values 
## but they are important for interfacing the output of MG5
## to external program such as Pythia.
DECAY  1 0.000000e+00 # d : 0.0 
DECAY  2 0.000000e+00 # u : 0.0 
DECAY  3 0.000000e+00 # s : 0.0 
DECAY  4 0.000000e+00 # c : 0.0 
DECAY  5 0.000000e+00 # b : 0.0 
DECAY  11 0.000000e+00 # e- : 0.0 
DECAY  12 0.000000e+00 # ve : 0.0 
DECAY  13 0.000000e+00 # mu- : 0.0 
DECAY  14 0.000000e+00 # vm : 0.0 
DECAY  15 0.000000e+00 # ta- : 0.0 
DECAY  16 0.000000e+00 # vt : 0.0 
DECAY  21 0.000000e+00 # g : 0.0 
DECAY  22 0.000000e+00 # a : 0.0
</slha>
<MGGenerationInfo>
#  Number of Events        :       1000
#  Integrated weight (pb)  :       251.68241347000006
</MGGenerationInfo>
</header>
<init>
2212 2212 6.500000e+03 6.500000e+03 0 0 247000 247000 -4 1
2.516824e+02 5.918047e-01 2.516824e+02 1
<generator name='MadGraph5_aMC@NLO' version='3.5.0_lo_vect'>please cite 1405.0301 </generator>
</init>
<event>
 6      1 +2.5168241e+02 3.50213400e+02 7.54677100e-03 1.16820100e-01
       21 -1    0    0  504  502 +0.0000000000e+00 +0.0000000000e+00 +1.4196603847e+03 1.4196603847e+03 0.0000000000e+00 0.0000e+00 1.0000e+00
       21 -1    0    0  505  503 -0.0000000000e+00 -0.0000000000e+00 -3.3032332437e+02 3.3032332437e+02 0.0000000000e+00 0.0000e+00 -1.0000e+00
        6  1    1    2  501    0 -1.5997849182e+02 -1.1074738068e+02 -9.0000355526e+01 2.7547624974e+02 1.7300000000e+02 0.0000e+00 -1.0000e+00
       -6  1    1    2    0  503 +3.5646546006e+02 -1.1492751902e+02 +4.2930091541e+02 5.9540258214e+02 1.7300000000e+02 0.0000e+00 1.0000e+00
       21  1    1    2  504  501 -1.7464386268e+02 +2.0730110149e+02 +2.2219525204e+02 3.5049244711e+02 0.0000000000e+00 0.0000e+00 -1.0000e+00
       21  1    1    2  505  502 -2.1843105559e+01 +1.8373798214e+01 +5.2784124837e+02 5.2861243005e+02 0.0000000000e+00 0.0000e+00 1.0000e+00
<mgrwt>
<rscale>  4 0.32538132E+03</rscale>
<asrwt>0</asrwt>
<pdfrwt beam="1">  1       21 0.21840929E+00 0.35021337E+03</pdfrwt>
<pdfrwt beam="2">  1       21 0.50818974E-01 0.35021337E+03</pdfrwt>
<totfact> 0.32649541E+02</totfact>
</mgrwt>
</event>
<event>
 6      1 +2.5168241e+02 4.35920500e+02 7.54677100e-03 1.16519500e-01
       21 -1    0    0  505  502 +0.0000000000e+00 +0.0000000000e+00 +1.3466680515e+03 1.3466680515e+03 0.0000000000e+00 0.0000e+00 -1.0000e+00
       21 -1    0    0  504  503 -0.0000000000e+00 -0.0000000000e+00 -3.3374472339e+02 3.3374472339e+02 0.0000000000e+00 0.0000e+00 1.0000e+00
        6  1    1    2  501    0 -7.9615298359e+01 +4.2848595612e+02 -5.4382714052e+01 4.7204373728e+02 1.7300000000e+02 0.0000e+00 1.0000e+00
       -6  1    1    2    0  503 +1.3688207337e+02 -2.4015561575e+02 +7.6751031643e+02 8.3391396895e+02 1.7300000000e+02 0.0000e+00 -1.0000e+00
       21  1    1    2  504  502 -1.7890288770e+01 -5.1630293748e+01 +1.8115751486e+02 1.8921890723e+02 0.0000000000e+00 0.0000e+00 -1.0000e+00
       21  1    1    2  505  501 -3.9376486242e+01 -1.3670004662e+02 +1.1863821083e+02 1.8523616138e+02 0.0000000000e+00 0.0000e+00 1.0000e+00
<mgrwt>
<rscale>  4 0.43592051E+03</rscale>
<asrwt>0</asrwt>
<pdfrwt beam="1">  1       21 0.20717970E+00 0.43592051E+03</pdfrwt>
<pdfrwt beam="2">  1       21 0.51345343E-01 0.43592051E+03</pdfrwt>
<totfact> 0.35824178E+02</totfact>
</mgrwt>
</event>
<event>
 6      1 +2.5168241e+02 2.69100300e+02 7.54677100e-03 1.05831300e-01
       21 -1    0    0  504  502 +0.0000000000e+00 +0.0000000000e+00 +2.9538533982e+02 2.9538533982e+02 0.0000000000e+00 0.0000e+00 -1.0000e+00
       21 -1    0    0  501  503 -0.0000000000e+00 -0.0000000000e+00 -5.3821577233e+02 5.3821577233e+02 0.0000000000e+00 0.0000e+00 1.0000e+00
        6  1    1    2  501    0 -1.4380520525e+02 -1.2428612981e+02 -3.0870321155e+02 4.0168850113e+02 1.7300000000e+02 0.0000e+00 1.0000e+00
       -6  1    1    2    0  505 +2.0506255474e+02 +1.6027890491e+02 -1.2252612033e-01 3.1252038930e+02 1.7300000000e+02 0.0000e+00 -1.0000e+00
       21  1    1    2  504  503 -9.7877876833e+00 +1.9443527045e+01 +5.2935702807e+00 2.2402531509e+01 0.0000000000e+00 0.0000e+00 -1.0000e+00
       21  1    1    2  505  502 -5.1469561809e+01 -5.5436302140e+01 +6.0701734885e+01 9.6989690204e+01 0.0000000000e+00 0.0000e+00 1.0000e+00
<mgrwt>
<rscale>  4 0.26910029E+03</rscale>
<asrwt>0</asrwt>
<pdfrwt beam="1">  1       21 0.45443899E-01 0.26910029E+03</pdfrwt>
<pdfrwt beam="2">  1       21 0.82802426E-01 0.26910029E+03</pdfrwt>
<totfact> 0.56147951E+03</totfact>
</mgrwt>
</event>
<event>
 6      1 +2.5168241e+02 2.10539500e+02 7.54677100e-03 1.12989000e-01
       21 -1    0    0  503  502 +0.0000000000e+00 +0.0000000000e+00 +3.8201027954e+02 3.8201027954e+02 0.0000000000e+00 0.0000e+00 1.0000e+00
       21 -1    0    0  504  503 -0.0000000000e+00 -0.0000000000e+00 -4.3053127678e+02 4.3053127678e+02 0.0000000000e+00 0.0000e+00 -1.0000e+00
        6  1    1    2  501    0 -1.2495212980e+02 -3.1231972995e+01 +2.2190817021e+02 3.0945226915e+02 1.7300000000e+02 0.0000e+00 1.0000e+00
       -6  1    1    2    0  502 +9.8217275770e+01 +2.7514319754e+01 +2.2953574417e+01 2.0213742264e+02 1.7300000000e+02 0.0000e+00 1.0000e+00
       21  1    1    2  504  505 +1.3765202920e+01 +2.0719025201e+01 -2.6077046729e+02 2.6195418574e+02 0.0000000000e+00 0.0000e+00 -1.0000e+00
       21  1    1    2  505  501 +1.2969651110e+01 -1.7001371960e+01 -3.2612274576e+01 3.8997678796e+01 0.0000000000e+00 0.0000e+00 -1.0000e+00
<mgrwt>
<rscale>  4 0.21053951E+03</rscale>
<asrwt>0</asrwt>
<pdfrwt beam="1">  1       21 0.58770813E-01 0.21053951E+03</pdfrwt>
<pdfrwt beam="2">  1       21 0.66235581E-01 0.21053951E+03</pdfrwt>
<totfact> 0.55905081E+03</totfact>
</mgrwt>
</event>
<event>
 6      1 +2.5168241e+02 2.19704000e+02 7.54677100e-03 1.16820100e-01
       21 -1    0    0  505  502 +0.0000000000e+00 +0.0000000000e+00 +2.1493199194e+02 2.1493199194e+02 0.0000000000e+00 0.0000e+00 -1.0000e+00
       21 -1    0    0  501  503 -0.0000000000e+00 -0.0000000000e+00 -8.0951024867e+02 8.0951024867e+02 0.0000000000e+00 0.0000e+00 -1.0000e+00
        6  1    1    2  501    0 -1.7564560092e+02 +3.5317381631e+00 -1.3127423225e+02 2.7933094055e+02 1.7300000000e+02 0.0000e+00 -1.0000e+00
       -6  1    1    2    0  502 +1.0037184682e+02 +8.2095838510e+00 -6.1733609315e+01 2.0948017429e+02 1.7300000000e+02 0.0000e+00 -1.0000e+00
       21  1    1    2  504  503 +4.3859972109e+01 -8.9886225080e+00 -4.6375329175e+02 4.6590944195e+02 0.0000000000e+00 0.0000e+00 -1.0000e+00
       21  1    1    2  505  504 +3.1413781989e+01 -2.7526995061e+00 +6.2182876585e+01 6.9721683814e+01 0.0000000000e+00 0.0000e+00 -1.0000e+00
<mgrwt>
<rscale>  4 0.21970397E+03</rscale>
<asrwt>0</asrwt>
<pdfrwt beam="1">  1       21 0.33066461E-01 0.21970397E+03</pdfrwt>
<pdfrwt beam="2">  1       21 0.12454004E+00 0.21970397E+03</pdfrwt>
<totfact> 0.41480906E+03</totfact>
</mgrwt>
</event>
<event>
 6      1 +2.5168241e+02 1.82310700e+02 7.54677100e-03 1.06249800e-01
       21 -1    0    0  503  502 +0.0000000000e+00 +0.0000000000e+00 +2.2975644979e+01 2.2975644979e+01 0.0000000000e+00 0.0000e+00 1.0000e+00
       21 -1    0    0  501  503 -0.0000000000e+00 -0.0000000000e+00 -2.7389891426e+03 2.7389891426e+03 0.0000000000e+00 0.0000e+00 1.0000e+00
        6  1    1    2  501    0 -3.9774343668e+01 +7.1860697376e+01 -1.5645874547e+03 1.5762642106e+03 1.7300000000e+02 0.0000e+00 -1.0000e+00
       -6  1    1    2    0  505 +1.6956162126e+01 -2.2147607062e+01 -1.0768420705e+03 1.0910068161e+03 1.7300000000e+02 0.0000e+00 1.0000e+00
       21  1    1    2  504  502 +1.5964357093e+00 -2.0302213228e+01 -1.6470743515e+01 2.6191866311e+01 0.0000000000e+00 0.0000e+00 -1.0000e+00
       21  1    1    2  505  504 +2.1221745833e+01 -2.9410877086e+01 -5.8113228909e+01 6.8501894583e+01 0.0000000000e+00 0.0000e+00 -1.0000e+00
<mgrwt>
<rscale>  4 0.18231074E+03</rscale>
<asrwt>0</asrwt>
<pdfrwt beam="1">  1       21 0.35347129E-02 0.18231074E+03</pdfrwt>
<pdfrwt beam="2">  1       21 0.42138315E+00 0.18231074E+03</pdfrwt>
<totfact> 0.31261454E+03</totfact>
</mgrwt>
</event>
<event>
 6      1 +2.5168241e+02 1.87703800e+02 7.54677100e-03 1.16820100e-01
       21 -1    0    0  505  502 +0.0000000000e+00 +0.0000000000e+00 +4.1806894661e+02 4.1806894661e+02 0.0000000000e+00 0.0000e+00 -1.0000e+00
       21 -1    0    0  501  503 -0.0000000000e+00 -0.0000000000e+00 -2.9525581915e+02 2.9525581915e+02 0.0000000000e+00 0.0000e+00 -1.0000e+00
        6  1    1    2  501    0 +4.6171834627e+01 +4.9118598774e+01 -1.3074683553e+02 2.2708634935e+02 1.7300000000e+02 0.0000e+00 -1.0000e+00
       -6  1    1    2    0  502 -9.7891705627e+01 -1.0591826116e+01 +1.5755756016e+00 1.9906394764e+02 1.7300000000e+02 0.0000e+00 -1.0000e+00
       21  1    1    2  504  503 +2.0168947555e+01 -3.3650637357e+01 +6.6743578280e+00 3.9795714498e+01 0.0000000000e+00 0.0000e+00 1.0000e+00
       21  1    1    2  505  504 +3.1550923445e+01 -4.8761353003e+00 +2.4531002956e+02 2.4737875427e+02 0.0000000000e+00 0.0000e+00 -1.0000e+00
<mgrwt>
<rscale>  4 0.18770383E+03</rscale>
<asrwt>0</asrwt>
<pdfrwt beam="1">  1       21 0.64318299E-01 0.18770383E+03</pdfrwt>
<pdfrwt beam="2">  1       21 0.45423972E-01 0.18770383E+03</pdfrwt>
<totfact> 0.10400770E+04</totfact>
</mgrwt>
</event>
<event>
 6      1 +2.5168241e+02 3.31911700e+02 7.54677100e-03 1.06249800e-01
       21 -1    0    0  503  502 +0.0000000000e+00 +0.0000000000e+00 +1.6886407886e+02 1.6886407886e+02 0.0000000000e+00 0.0000e+00 1.0000e+00
       21 -1    0    0  501  503 -0.0000000000e+00 -0.0000000000e+00 -1.3277964369e+03 1.3277964369e+03 0.0000000000e+00 0.0000e+00 1.0000e+00
        6  1    1    2  501    0 -2.3552816819e+02 +4.3009320989e+01 -5.3510543129e+02 6.1122020770e+02 1.7300000000e+02 0.0000e+00 1.0000e+00
       -6  1    1    2    0  504 -6.4353600753e+01 -1.8191090908e+02 -3.6145559490e+02 4.4476073552e+02 1.7300000000e+02 0.0000e+00 -1.0000e+00
       21  1    1    2  504  505 +2.9148817895e+02 +1.5744061390e+02 -2.5790975253e+02 4.1984562142e+02 0.0000000000e+00 0.0000e+00 1.0000e+00
       21  1    1    2  505  502 +8.3935899965e+00 -1.8539025809e+01 -4.4615793513e+00 2.0833951168e+01 0.0000000000e+00 0.0000e+00 -1.0000e+00
<mgrwt>
<rscale>  4 0.31286251E+03</rscale>
<asrwt>0</asrwt>
<pdfrwt beam="1">  1       21 0.25979089E-01 0.33191173E+03</pdfrwt>
<pdfrwt beam="2">  1       21 0.20427637E+00 0.33191173E+03</pdfrwt>
<totfact> 0.15846775E+03</totfact>
</mgrwt>
</event>
<event>
 6      1 +2.5168241e+02 2.19728800e+02 7.54677100e-03 1.15942100e-01
       21 -1    0    0  504  502 +0.0000000000e+00 +0.0000000000e+00 +6.0656952322e+02 6.0656952322e+02 0.0000000000e+00 0.0000e+00 1.0000e+00
       21 -1    0    0  501  503 -0.0000000000e+00 -0.0000000000e+00 -9.1270172792e+02 9.1270172792e+02 0.0000000000e+00 0.0000e+00 -1.0000e+00
        6  1    1    2  501    0 -7.3900081279e+01 -8.7996732046e+01 +2.6070031861e+02 3.3331412060e+02 1.7300000000e+02 0.0000e+00 -1.0000e+00
       -6  1    1    2    0  502 -3.7258616176e+01 +2.0620656338e+02 +2.3184229233e+02 3.5719630425e+02 1.7300000000e+02 0.0000e+00 1.0000e+00
       21  1    1    2  504  505 +5.4706060729e+01 -1.0139465915e+02 -7.2660254083e+02 7.3567987761e+02 0.0000000000e+00 0.0000e+00 -1.0000e+00
       21  1    1    2  505  503 +5.6452636726e+01 -1.6815172182e+01 -7.2072274822e+01 9.3080948679e+01 0.0000000000e+00 0.0000e+00 -1.0000e+00
<mgrwt>
<rscale>  4 0.21972877E+03</rscale>
<asrwt>0</asrwt>
<pdfrwt beam="1">  1       21 0.93318388E-01 0.21972877E+03</pdfrwt>
<pdfrwt beam="2">  1       21 0.14041565E+00 0.21972877E+03</pdfrwt>
<totfact> 0.33259189E+02</totfact>
</mgrwt>
</event>
<event>
 6      1 +2.5168241e+02 1.77004500e+02 7.54677100e-03 1.16820100e-01
       21 -1    0    0  504  502 +0.0000000000e+00 +0.0000000000e+00 +3.1745470433e+02 3.1745470433e+02 0.0000000000e+00 0.0000e+00 -1.0000e+00
       21 -1    0    0  501  503 -0.0000000000e+00 -0.0000000000e+00 -1.0959264657e+03 1.0959264657e+03 0.0000000000e+00 0.0000e+00 -1.0000e+00
        6  1    1    2  501    0 -1.0819908330e+01 +2.2631738745e+01 -5.9847255166e+02 6.2348028125e+02 1.7300000000e+02 0.0000e+00 -1.0000e+00
       -6  1    1    2    0  505 -1.8463166560e+01 +8.2638526004e+01 -1.4511949978e+02 2.4116111568e+02 1.7300000000e+02 0.0000e+00 -1.0000e+00
       21  1    1    2  504  503 +1.6968030564e+00 -6.5244954192e+01 -2.8579818869e+02 2.9315591047e+02 0.0000000000e+00 0.0000e+00 1.0000e+00
       21  1    1    2  505  502 +2.7586271833e+01 -4.0025310557e+01 +2.5091847873e+02 2.5558386265e+02 0.0000000000e+00 0.0000e+00 -1.0000e+00
<mgrwt>
<rscale>  4 0.17700446E+03</rscale>
<asrwt>0</asrwt>
<pdfrwt beam="1">  1       21 0.48839185E-01 0.17700446E+03</pdfrwt>
<pdfrwt beam="2">  1       21 0.16860407E+00 0.17700446E+03</pdfrwt>
<totfact> 0.88898899E+02</totfact>
</mgrwt>
</event>
<event>
 6      1 +2.5168241e+02 2.49476600e+02 7.54677100e-03 1.03924000e-01
       21 -1    0    0  504  502 +0.0000000000e+00 +0.0000000000e+00 +6.0111313368e+02 6.0111313368e+02 0.0000000000e+00 0.0000e+00 -1.0000e+00
       21 -1    0    0  501  503 -0.0000000000e+00 -0.0000000000e+00 -2.1660429273e+02 2.1660429273e+02 0.0000000000e+00 0.0000e+00 -1.0000e+00
        6  1    1    2  501    0 -1.7006551699e+02 -6.7747629528e+01 -1.5880673715e+01 2.5237515166e+02 1.7300000000e+02 0.0000e+00 -1.0000e+00
       -6  1    1    2    0  505 +2.1327165701e+01 -3.3284201352e+01 +8.1535692486e+01 1.9529402245e+02 1.7300000000e+02 0.0000e+00 1.0000e+00
       21  1    1    2  504  503 +2.8872919728e+01 +6.7305826433e+00 +9.2278746578e+01 9.6924265829e+01 0.0000000000e+00 0.0000e+00 -1.0000e+00
       21  1    1    2  505  502 +1.1986543156e+02 +9.4301248237e+01 +2.2657507560e+02 2.7312398647e+02 0.0000000000e+00 0.0000e+00 -1.0000e+00
<mgrwt>
<rscale>  4 0.22911148E+03</rscale>
<asrwt>0</asrwt>
<pdfrwt beam="1">  1       21 0.92478943E-01 0.24947660E+03</pdfrwt>
<pdfrwt beam="2">  1       21 0.33323737E-01 0.24947660E+03</pdfrwt>
<totfact> 0.82411976E+03</totfact>
</mgrwt>
</event>
<event>
 6      1 +2.5168241e+02 2.15554500e+02 7.54677100e-03 1.11471900e-01
       21 -1    0    0  503  502 +0.0000000000e+00 +0.0000000000e+00 +1.3702087658e+02 1.3702087658e+02 0.0000000000e+00 0.0000e+00 1.0000e+00
       21 -1    0    0  501  503 -0.0000000000e+00 -0.0000000000e+00 -6.3678744050e+02 6.3678744050e+02 0.0000000000e+00 0.0000e+00 -1.0000e+00
        6  1    1    2  501    0 -7.1312632199e+01 +1.0286342137e+02 -3.8368626528e+01 2.1695051618e+02 1.7300000000e+02 0.0000e+00 1.0000e+00
       -6  1    1    2    0  504 +1.3825638953e+01 -1.5189452544e+02 -3.3036703028e+02 4.0290752022e+02 1.7300000000e+02 0.0000e+00 -1.0000e+00
       21  1    1    2  504  505 +3.3224517331e+01 +4.4622527560e+01 -9.8554883398e+01 1.1317289233e+02 0.0000000000e+00 0.0000e+00 -1.0000e+00
       21  1    1    2  505  502 +2.4262475915e+01 +4.4085765033e+00 -3.2476023716e+01 4.0777388351e+01 0.0000000000e+00 0.0000e+00 -1.0000e+00
<mgrwt>
<rscale>  4 0.21555449E+03</rscale>
<asrwt>0</asrwt>
<pdfrwt beam="1">  1       21 0.21080135E-01 0.21555449E+03</pdfrwt>
<pdfrwt beam="2">  1       21 0.97967299E-01 0.21555449E+03</pdfrwt>
<totfact> 0.17772513E+04</totfact>
</mgrwt>
</event>
<event>
 6      1 +2.5168241e+02 2.44375300e+02 7.54677100e-03 1.11471900e-01
       21 -1    0    0  503  502 +0.0000000000e+00 +0.0000000000e+00 +5.1573012842e+02 5.1573012842e+02 0.0000000000e+00 0.0000e+00 1.0000e+00
       21 -1    0    0  501  503 -0.0000000000e+00 -0.0000000000e+00 -2.7398974572e+02 2.7398974572e+02 0.0000000000e+00 0.0000e+00 1.0000e+00
        6  1    1    2  501    0 +3.5619999945e+01 +6.5370208214e+01 +1.5848390355e+02 2.4614669651e+02 1.7300000000e+02 0.0000e+00 1.0000e+00
       -6  1    1    2    0  504 -5.5173017291e+01 -2.2937879505e+02 -2.1801020448e+01 2.9336492283e+02 1.7300000000e+02 0.0000e+00 1.0000e+00
       21  1    1    2  504  505 -1.0202110732e+01 -1.9722623660e+01 -1.6709982697e+01 2.7790078610e+01 0.0000000000e+00 0.0000e+00 1.0000e+00
       21  1    1    2  505  502 +2.9755128079e+01 +1.8373121050e+02 +1.2176748229e+02 2.2241817619e+02 0.0000000000e+00 0.0000e+00 1.0000e+00
<mgrwt>
<rscale>  4 0.24437527E+03</rscale>
<asrwt>0</asrwt>
<pdfrwt beam="1">  1       21 0.79343097E-01 0.24437527E+03</pdfrwt>
<pdfrwt beam="2">  1       21 0.42152269E-01 0.24437527E+03</pdfrwt>
<totfact> 0.73306856E+03</totfact>
</mgrwt>
</event>
<event>
 6      1 +2.5168241e+02 2.13001200e+02 7.54677100e-03 1.16820100e-01
       21 -1    0    0  504  502 +0.0000000000e+00 +0.0000000000e+00 +9.1887736340e+02 9.1887736340e+02 0.0000000000e+00 0.0000e+00 1.0000e+00
       21 -1    0    0  501  503 -0.0000000000e+00 -0.0000000000e+00 -3.2480501381e+02 3.2480501381e+02 0.0000000000e+00 0.0000e+00 -1.0000e+00
        6  1    1    2  501    0 +5.8588275828e+01 +1.0584077258e+02 -1.3800545003e+02 2.5220895988e+02 1.7300000000e+02 0.0000e+00 -1.0000e+00
       -6  1    1    2    0  505 +1.9548050161e+01 -1.5097900469e+02 +4.3702053104e+01 2.3455416340e+02 1.7300000000e+02 0.0000e+00 1.0000e+00
       21  1    1    2  504  503 -5.8368460403e+01 +3.0402253515e+01 -2.2533079849e+00 6.5850220846e+01 0.0000000000e+00 0.0000e+00 -1.0000e+00
       21  1    1    2  505  502 -1.9767865586e+01 +1.4735978600e+01 +6.9062905450e+02 6.9106903309e+02 0.0000000000e+00 0.0000e+00 1.0000e+00
<mgrwt>
<rscale>  4 0.21300123E+03</rscale>
<asrwt>0</asrwt>
<pdfrwt beam="1">  1       21 0.14136575E+00 0.21300123E+03</pdfrwt>
<pdfrwt beam="2">  1       21 0.49970002E-01 0.21300123E+03</pdfrwt>
<totfact> 0.13052195E+03</totfact>
</mgrwt>
</event>
<event>
 6      1 +2.5168241e+02 2.47378400e+02 7.54677100e-03 1.03924000e-01
       21 -1    0    0  504  502 +0.0000000000e+00 +0.0000000000e+00 +5.7896285718e+02 5.7896285718e+02 0.0000000000e+00 0.0000e+00 1.0000e+00
       21 -1    0    0  501  503 -0.0000000000e+00 -0.0000000000e+00 -4.1868283954e+02 4.1868283954e+02 0.0000000000e+00 0.0000e+00 1.0000e+00
        6  1    1    2  501    0 +9.3040874491e+00 -2.8220103324e+02 -6.1423225744e+01 3.3678747285e+02 1.7300000000e+02 0.0000e+00 1.0000e+00
       -6  1    1    2    0  505 -6.2884435606e-01 +1.2307509058e+02 -9.0468776934e+01 2.3078447298e+02 1.7300000000e+02 0.0000e+00 1.0000e+00
       21  1    1    2  504  503 +1.1403657586e+02 +3.1286855572e+01 +1.1447766487e+02 1.6458536910e+02 0.0000000000e+00 0.0000e+00 1.0000e+00
       21  1    1    2  505  502 -1.2271181896e+02 +1.2783908709e+02 +1.9769435544e+02 2.6548838180e+02 0.0000000000e+00 0.0000e+00 1.0000e+00
<mgrwt>
<rscale>  4 0.24737839E+03</rscale>
<asrwt>0</asrwt>
<pdfrwt beam="1">  1       21 0.89071209E-01 0.24737839E+03</pdfrwt>
<pdfrwt beam="2">  1       21 0.64412745E-01 0.24737839E+03</pdfrwt>
<totfact> 0.22894642E+03</totfact>
</mgrwt>
</event>
<event>
 6      1 +2.5168241e+02 3.28158800e+02 7.54677100e-03 1.16820100e-01
       21 -1    0    0  505  502 +0.0000000000e+00 +0.0000000000e+00 +1.6537453084e+02 1.6537453084e+02 0.0000000000e+00 0.0000e+00 1.0000e+00
       21 -1    0    0  501  503 -0.0000000000e+00 -0.0000000000e+00 -9.6951561088e+02 9.6951561088e+02 0.0000000000e+00 0.0000e+00 -1.0000e+00
        6  1    1    2  501    0 +2.4078779261e+02 +1.4341789925e+02 -4.3208162041e+02 5.4329640307e+02 1.7300000000e+02 0.0000e+00 -1.0000e+00
       -6  1    1    2    0  502 -2.3682694075e+02 -1.4437001470e+02 -3.9279288648e+02 5.1102343653e+02 1.7300000000e+02 0.0000e+00 -1.0000e+00
       21  1    1    2  504  503 -2.1505481426e+01 -1.7659267646e+01 -1.8729891396e+01 3.3543170644e+01 0.0000000000e+00 0.0000e+00 -1.0000e+00
       21  1    1    2  505  504 +1.7544629564e+01 +1.8611383103e+01 +3.9463318254e+01 4.7027131479e+01 0.0000000000e+00 0.0000e+00 1.0000e+00
<mgrwt>
<rscale>  4 0.32815875E+03</rscale>
<asrwt>0</asrwt>
<pdfrwt beam="1">  1       21 0.25442236E-01 0.32815875E+03</pdfrwt>
<pdfrwt beam="2">  1       21 0.14915625E+00 0.32815875E+03</pdfrwt>
<totfact> 0.40600933E+03</totfact>
</mgrwt>
</event>
<event>
 6      1 +2.5168241e+02 1.86330100e+02 7.54677100e-03 1.16820100e-01
       21 -1    0    0  505  502 +0.0000000000e+00 +0.0000000000e+00 +8.5087425495e+02 8.5087425495e+02 0.0000000000e+00 0.0000e+00 -1.0000e+00
       21 -1    0    0  501  503 -0.0000000000e+00 -0.0000000000e+00 -3.0799567981e+02 3.0799567981e+02 0.0000000000e+00 0.0000e+00 1.0000e+00
        6  1    1    2  501    0 -5.3173218962e+01 +3.9449673845e+01 +1.3121283517e+02 2.2700104866e+02 1.7300000000e+02 0.0000e+00 1.0000e+00
       -6  1    1    2    0  502 +1.0346681207e+01 -6.9532792974e+01 +4.0513587948e+02 4.4610082264e+02 1.7300000000e+02 0.0000e+00 -1.0000e+00
       21  1    1    2  504  503 +3.2134526348e+00 +2.2631501074e+01 -2.3741633480e+02 2.3851420744e+02 0.0000000000e+00 0.0000e+00 1.0000e+00
       21  1    1    2  505  504 +3.9613085120e+01 +7.4516180547e+00 +2.4394619529e+02 2.4725385603e+02 0.0000000000e+00 0.0000e+00 -1.0000e+00
<mgrwt>
<rscale>  4 0.18633007E+03</rscale>
<asrwt>0</asrwt>
<pdfrwt beam="1">  1       21 0.13090373E+00 0.18633007E+03</pdfrwt>
<pdfrwt beam="2">  1       21 0.47383951E-01 0.18633007E+03</pdfrwt>
<totfact> 0.18206555E+03</totfact>
</mgrwt>
</event>
<event>
 6      1 +2.5168241e+02 2.75928200e+02 7.54677100e-03 1.03924000e-01
       21 -1    0    0  504  502 +0.0000000000e+00 +0.0000000000e+00 +3.2662078378e+02 3.2662078378e+02 0.0000000000e+00 0.0000e+00 1.0000e+00
       21 -1    0    0  501  503 -0.0000000000e+00 -0.0000000000e+00 -1.0507241369e+03 1.0507241369e+03 0.0000000000e+00 0.0000e+00 1.0000e+00
        6  1    1    2  501    0 -8.6779112943e+01 -8.1931038628e+01 -8.4193561880e+01 2.2640862483e+02 1.7300000000e+02 0.0000e+00 1.0000e+00
       -6  1    1    2    0  505 +2.6251937602e+02 +2.3351196323e+01 -8.1573774985e+02 8.7453918019e+02 1.7300000000e+02 0.0000e+00 1.0000e+00
       21  1    1    2  504  503 -7.9805753359e+01 +3.9793116999e+01 +1.5127613628e+02 1.7560444139e+02 0.0000000000e+00 0.0000e+00 1.0000e+00
       21  1    1    2  505  502 -9.5934509714e+01 +1.8786725305e+01 +2.4551822352e+01 1.0079267425e+02 0.0000000000e+00 0.0000e+00 1.0000e+00
<mgrwt>
<rscale>  4 0.27592820E+03</rscale>
<asrwt>0</asrwt>
<pdfrwt beam="1">  1       21 0.50249351E-01 0.27592820E+03</pdfrwt>
<pdfrwt beam="2">  1       21 0.16164987E+00 0.27592820E+03</pdfrwt>
<totfact> 0.85569466E+02</totfact>
</mgrwt>
</event>
<event>
 6      1 +2.5168241e+02 1.80329800e+02 7.54677100e-03 1.16820100e-01
       21 -1    0    0  505  502 +0.0000000000e+00 +0.0000000000e+00 +1.6667402294e+02 1.6667402294e+02 0.0000000000e+00 0.0000e+00 -1.0000e+00
       21 -1    0    0  501  503 -0.0000000000e+00 -0.0000000000e+00 -8.9108459497e+02 8.9108459497e+02 0.0000000000e+00 0.0000e+00 -1.0000e+00
        6  1    1    2  501    0 -9.2118065806e+01 -1.0368375247e+02 -1.9071919576e+02 2.9247028944e+02 1.7300000000e+02 0.0000e+00 -1.0000e+00
       -6  1    1    2    0  502 -3.4036306372e+01 +2.2041872451e+01 -5.0078601881e+02 5.3137552722e+02 1.7300000000e+02 0.0000e+00 -1.0000e+00
       21  1    1    2  504  503 +6.0851920941e+01 -8.6563672596e+00 -8.9777728363e+01 1.0880224945e+02 0.0000000000e+00 0.0000e+00 1.0000e+00
       21  1    1    2  505  504 +6.5302451237e+01 +9.0298247282e+01 +5.6872370898e+01 1.2511055180e+02 0.0000000000e+00 0.0000e+00 -1.0000e+00
<mgrwt>
<rscale>  4 0.18032981E+03</rscale>
<asrwt>0</asrwt>
<pdfrwt beam="1">  1       21 0.25642157E-01 0.18032981E+03</pdfrwt>
<pdfrwt beam="2">  1       21 0.13708994E+00 0.18032981E+03</pdfrwt>
<totfact> 0.55066210E+03</totfact>
</mgrwt>
</event>
<event>
 6      1 +2.5168241e+02 2.03366400e+02 7.54677100e-03 1.11910500e-01
       21 -1    0    0  501  502 +0.0000000000e+00 +0.0000000000e+00 +2.1448747094e+02 2.1448747094e+02 0.0000000000e+00 0.0000e+00 1.0000e+00
       21 -1    0    0  504  503 -0.0000000000e+00 -0.0000000000e+00 -8.5116607727e+02 8.5116607727e+02 0.0000000000e+00 0.0000e+00 1.0000e+00
        6  1    1    2  501    0 -3.3380950433e+01 -9.5152132296e+01 +7.3433039982e+01 2.1328297516e+02 1.7300000000e+02 0.0000e+00 1.0000e+00
       -6  1    1    2    0  503 -5.2734439698e+01 +1.4873362460e+02 -2.4060810300e+02 3.3574375861e+02 1.7300000000e+02 0.0000e+00 1.0000e+00
       21  1    1    2  504  505 -4.9937029740e+01 +7.1368251910e+00 -2.2269045529e+02 2.2833238949e+02 0.0000000000e+00 0.0000e+00 1.0000e+00
       21  1    1    2  505  502 +1.3605241987e+02 -6.0718317496e+01 -2.4681308803e+02 2.8829442494e+02 0.0000000000e+00 0.0000e+00 1.0000e+00
<mgrwt>
<rscale>  4 0.20336642E+03</rscale>
<asrwt>0</asrwt>
<pdfrwt beam="1">  1       21 0.32998073E-01 0.20336642E+03</pdfrwt>
<pdfrwt beam="2">  1       21 0.13094863E+00 0.20336642E+03</pdfrwt>
<totfact> 0.37182223E+03</totfact>
</mgrwt>
</event>
<event>
 6      1 +2.5168241e+02 1.87962700e+02 7.54677100e-03 1.16820100e-01
       21 -1    0    0  501  502 +0.0000000000e+00 +0.0000000000e+00 +8.0090219016e+02 8.0090219016e+02 0.0000000000e+00 0.0000e+00 1.0000e+00
       21 -1    0    0  504  503 -0.0000000000e+00 -0.0000000000e+00 -8.9369549979e+02 8.9369549979e+02 0.0000000000e+00 0.0000e+00 1.0000e+00
        6  1    1    2  501    0 -5.6106135846e+01 +2.5836693626e+01 +3.9644178872e+02 4.3693308992e+02 1.7300000000e+02 0.0000e+00 1.0000e+00
       -6  1    1    2    0  503 +1.3147930325e+02 +5.0154217736e+01 +2.3848532785e+02 3.2650651500e+02 1.7300000000e+02 0.0000e+00 1.0000e+00
       21  1    1    2  504  505 -9.4859933870e+01 -7.0594216500e+01 -8.2417128103e+02 8.3261050374e+02 0.0000000000e+00 0.0000e+00 1.0000e+00
       21  1    1    2  505  502 +1.9486766470e+01 -5.3966948617e+00 +9.6450854830e+01 9.8547581301e+01 0.0000000000e+00 0.0000e+00 1.0000e+00
<mgrwt>
<rscale>  4 0.18796275E+03</rscale>
<asrwt>0</asrwt>
<pdfrwt beam="1">  1       21 0.12321572E+00 0.18796275E+03</pdfrwt>
<pdfrwt beam="2">  1       21 0.13749162E+00 0.18796275E+03</pdfrwt>
<totfact> 0.18652574E+02</totfact>
</mgrwt>
</event>
<event>
 6      1 +2.5168241e+02 2.24007600e+02 7.54677100e-03 1.03924000e-01
       21 -1    0    0  504  502 +0.0000000000e+00 +0.0000000000e+00 +2.0513115128e+02 2.0513115128e+02 0.0000000000e+00 0.0000e+00 -1.0000e+00
       21 -1    0    0  501  503 -0.0000000000e+00 -0.0000000000e+00 -1.7345668191e+03 1.7345668191e+03 0.0000000000e+00 0.0000e+00 1.0000e+00
        6  1    1    2  501    0 -1.6881627505e+02 +1.6143455066e+02 -5.1839614080e+02 5.9432617952e+02 1.7300000000e+02 0.0000e+00 -1.0000e+00
       -6  1    1    2    0  505 +6.0592018220e+01 -1.0245992917e+02 -1.0577520350e+03 1.0783959372e+03 1.7300000000e+02 0.0000e+00 1.0000e+00
       21  1    1    2  504  503 +7.5031812092e+01 -1.3398392287e+02 -2.7918560858e+01 1.5607982077e+02 0.0000000000e+00 0.0000e+00 -1.0000e+00
       21  1    1    2  505  502 +3.3192444741e+01 +7.5009301383e+01 +7.4631068830e+01 1.1089603292e+02 0.0000000000e+00 0.0000e+00 1.0000e+00
<mgrwt>
<rscale>  4 0.22400758E+03</rscale>
<asrwt>0</asrwt>
<pdfrwt beam="1">  1       21 0.31558639E-01 0.22400758E+03</pdfrwt>
<pdfrwt beam="2">  1       21 0.26685643E+00 0.22400758E+03</pdfrwt>
<totfact> 0.49157474E+02</totfact>
</mgrwt>
</event>
<event>
 6      1 +2.5168241e+02 1.95996600e+02 7.54677100e-03 1.03924000e-01
       21 -1    0    0  504  502 +0.0000000000e+00 +0.0000000000e+00 +1.0826868925e+03 1.0826868925e+03 0.0000000000e+00 0.0000e+00 1.0000e+00
       21 -1    0    0  501  503 -0.0000000000e+00 -0.0000000000e+00 -1.4205922472e+02 1.4205922472e+02 0.0000000000e+00 0.0000e+00 1.0000e+00
        6  1    1    2  501    0 +5.5763052032e+01 +1.0505333210e+02 -1.4345230302e+01 2.1042933776e+02 1.7300000000e+02 0.0000e+00 1.0000e+00
       -6  1    1    2    0  505 -4.4609312400e+00 +3.2807971068e+01 +4.1580686827e+02 4.5157570193e+02 1.7300000000e+02 0.0000e+00 1.0000e+00
       21  1    1    2  504  503 -6.7331337122e+01 -1.1374417586e+02 +4.4691042319e+02 4.6604739336e+02 0.0000000000e+00 0.0000e+00 1.0000e+00
       21  1    1    2  505  502 +1.6029216330e+01 -2.4117127310e+01 +9.2255606590e+01 9.6693684142e+01 0.0000000000e+00 0.0000e+00 -1.0000e+00
<mgrwt>
<rscale>  4 0.19599656E+03</rscale>
<asrwt>0</asrwt>
<pdfrwt beam="1">  1       21 0.16656721E+00 0.19599656E+03</pdfrwt>
<pdfrwt beam="2">  1       21 0.21855266E-01 0.19599656E+03</pdfrwt>
<totfact> 0.43974344E+03</totfact>
</mgrwt>
</event>
<event>
 6      1 +2.5168241e+02 1.87585300e+02 7.54677100e-03 1.12989000e-01
       21 -1    0    0  503  502 +0.0000000000e+00 +0.0000000000e+00 +2.4467611096e+02 2.4467611096e+02 0.0000000000e+00 0.0000e+00 1.0000e+00
       21 -1    0    0  501  503 -0.0000000000e+00 -0.0000000000e+00 -3.7561078191e+02 3.7561078191e+02 0.0000000000e+00 0.0000e+00 1.0000e+00
        6  1    1    2  501    0 +5.4894778187e+01 -6.1520676191e+01 +1.5287579793e+02 2.4514942354e+02 1.7300000000e+02 0.0000e+00 1.0000e+00
       -6  1    1    2    0  504 -1.9863073675e+01 +2.4540814525e+01 -1.4979122375e+02 2.3100477048e+02 1.7300000000e+02 0.0000e+00 1.0000e+00
       21  1    1    2  504  505 -1.0622668537e+01 +1.8040064972e+01 -6.9733295297e+01 7.2808086803e+01 0.0000000000e+00 0.0000e+00 -1.0000e+00
       21  1    1    2  505  502 -2.4409035976e+01 +1.8939796694e+01 -6.4285949837e+01 7.1324612039e+01 0.0000000000e+00 0.0000e+00 -1.0000e+00
<mgrwt>
<rscale>  4 0.18758532E+03</rscale>
<asrwt>0</asrwt>
<pdfrwt beam="1">  1       21 0.37642478E-01 0.18758532E+03</pdfrwt>
<pdfrwt beam="2">  1       21 0.57786274E-01 0.18758532E+03</pdfrwt>
<totfact> 0.19172617E+04</totfact>
</mgrwt>
</event>
<event>
 6      1 +2.5168241e+02 4.01518200e+02 7.54677100e-03 1.15942100e-01
       21 -1    0    0  504  502 +0.0000000000e+00 +0.0000000000e+00 +6.6262781392e+02 6.6262781392e+02 0.0000000000e+00 0.0000e+00 -1.0000e+00
       21 -1    0    0  501  503 -0.0000000000e+00 -0.0000000000e+00 -5.4571633518e+02 5.4571633518e+02 0.0000000000e+00 0.0000e+00 1.0000e+00
        6  1    1    2  501    0 -3.9054926780e+02 +2.3860153773e+01 +9.3671512709e+01 4.3795135553e+02 1.7300000000e+02 0.0000e+00 -1.0000e+00
       -6  1    1    2    0  502 +3.4201751844e+02 -5.8943326285e+01 +2.9741549592e+02 4.8870776119e+02 1.7300000000e+02 0.0000e+00 1.0000e+00
       21  1    1    2  504  505 +2.3485976844e+01 +2.8934403183e+01 -1.3065448054e+02 1.3586531596e+02 0.0000000000e+00 0.0000e+00 1.0000e+00
       21  1    1    2  505  503 +2.5045772517e+01 +6.1487693295e+00 -1.4352104936e+02 1.4581971642e+02 0.0000000000e+00 0.0000e+00 1.0000e+00
<mgrwt>
<rscale>  4 0.40151815E+03</rscale>
<asrwt>0</asrwt>
<pdfrwt beam="1">  1       21 0.10194274E+00 0.40151815E+03</pdfrwt>
<pdfrwt beam="2">  1       21 0.83956359E-01 0.40151815E+03</pdfrwt>
<totfact> 0.83604516E+02</totfact>
</mgrwt>
</event>
<event>
 6      1 +2.5168241e+02 2.46560300e+02 7.54677100e-03 1.16820100e-01
       21 -1    0    0  501  502 +0.0000000000e+00 +0.0000000000e+00 +1.2410563920e+03 1.2410563920e+03 0.0000000000e+00 0.0000e+00 1.0000e+00
       21 -1    0    0  504  503 -0.0000000000e+00 -0.0000000000e+00 -1.1658092689e+02 1.1658092689e+02 0.0000000000e+00 0.0000e+00 1.0000e+00
        6  1    1    2  501    0 -2.3021726155e+02 +1.0214136516e+02 +7.2526230747e+02 7.8699889494e+02 1.7300000000e+02 0.0000e+00 1.0000e+00
       -6  1    1    2    0  503 +1.4009450166e+02 -1.3708855517e+01 +1.6425315761e+02 2.7698827033e+02 1.7300000000e+02 0.0000e+00 1.0000e+00
       21  1    1    2  504  505 +4.4326914523e+00 -6.0147308362e+01 +2.5312327771e+01 6.5406891028e+01 0.0000000000e+00 0.0000e+00 1.0000e+00
       21  1    1    2  505  502 +8.5690068430e+01 -2.8285201280e+01 +2.0964767226e+02 2.2824326260e+02 0.0000000000e+00 0.0000e+00 1.0000e+00
<mgrwt>
<rscale>  4 0.24656031E+03</rscale>
<asrwt>0</asrwt>
<pdfrwt beam="1">  1       21 0.19093174E+00 0.24656031E+03</pdfrwt>
<pdfrwt beam="2">  1       21 0.17935528E-01 0.24656031E+03</pdfrwt>
<totfact> 0.41539158E+03</totfact>
</mgrwt>
</event>
<event>
 6      1 +2.5168241e+02 3.16108300e+02 7.54677100e-03 1.05831300e-01
       21 -1    0    0  504  502 +0.0000000000e+00 +0.0000000000e+00 +9.9707064726e+02 9.9707064726e+02 0.0000000000e+00 0.0000e+00 1.0000e+00
       21 -1    0    0  501  503 -0.0000000000e+00 -0.0000000000e+00 -4.2764986966e+02 4.2764986966e+02 0.0000000000e+00 0.0000e+00 -1.0000e+00
        6  1    1    2  501    0 +2.6300839913e+02 -5.7675797473e+01 +7.1937007746e+02 7.8735139803e+02 1.7300000000e+02 0.0000e+00 1.0000e+00
       -6  1    1    2    0  505 -2.3644819539e+02 +5.6525681544e+01 -2.8013500491e+02 4.0927682899e+02 1.7300000000e+02 0.0000e+00 -1.0000e+00
       21  1    1    2  504  503 -2.9003107232e+01 -2.9438180891e+01 -3.8594759722e+01 5.6545045772e+01 0.0000000000e+00 0.0000e+00 1.0000e+00
       21  1    1    2  505  502 +2.4429034903e+00 +3.0588296820e+01 +1.6878046477e+02 1.7154724413e+02 0.0000000000e+00 0.0000e+00 1.0000e+00
<mgrwt>
<rscale>  4 0.31610833E+03</rscale>
<asrwt>0</asrwt>
<pdfrwt beam="1">  1       21 0.15339548E+00 0.31610833E+03</pdfrwt>
<pdfrwt beam="2">  1       21 0.65792288E-01 0.31610833E+03</pdfrwt>
<totfact> 0.53659469E+02</totfact>
</mgrwt>
</event>
<event>
 6      1 +2.5168241e+02 2.01295300e+02 7.54677100e-03 1.16820100e-01
       21 -1    0    0  501  502 +0.0000000000e+00 +0.0000000000e+00 +2.8252574591e+02 2.8252574591e+02 0.0000000000e+00 0.0000e+00 1.0000e+00
       21 -1    0    0  504  503 -0.0000000000e+00 -0.0000000000e+00 -3.2976419613e+02 3.2976419613e+02 0.0000000000e+00 0.0000e+00 1.0000e+00
        6  1    1    2  501    0 +1.0438985193e+02 +9.5067799347e+01 +1.3991112634e+01 2.2374065096e+02 1.7300000000e+02 0.0000e+00 1.0000e+00
       -6  1    1    2    0  503 -9.4757387409e+01 +4.6257494261e+00 -1.1725209743e+02 2.2951560813e+02 1.7300000000e+02 0.0000e+00 1.0000e+00
       21  1    1    2  504  505 +2.9905926148e+00 -2.0744886261e+01 -3.3179718151e+01 3.9245224509e+01 0.0000000000e+00 0.0000e+00 1.0000e+00
       21  1    1    2  505  502 -1.2623057135e+01 -7.8948662512e+01 +8.9202252730e+01 1.1978845844e+02 0.0000000000e+00 0.0000e+00 1.0000e+00
<mgrwt>
<rscale>  4 0.20129527E+03</rscale>
<asrwt>0</asrwt>
<pdfrwt beam="1">  1       21 0.43465500E-01 0.20129527E+03</pdfrwt>
<pdfrwt beam="2">  1       21 0.50732953E-01 0.20129527E+03</pdfrwt>
<totfact> 0.18707367E+04</totfact>
</mgrwt>
</event>
<event>
 6      1 +2.5168241e+02 1.76326400e+02 7.54677100e-03 1.03924000e-01
       21 -1    0    0  504  502 +0.0000000000e+00 +0.0000000000e+00 +7.6718752110e+02 7.6718752110e+02 0.0000000000e+00 0.0000e+00 1.0000e+00
       21 -1    0    0  501  503 -0.0000000000e+00 -0.0000000000e+00 -1.3196478554e+02 1.3196478554e+02 0.0000000000e+00 0.0000e+00 1.0000e+00
        6  1    1    2  501    0 +2.2852602284e+01 -8.6769463534e+01 +6.9246600320e+01 2.0682183852e+02 1.7300000000e+02 0.0000e+00 1.0000e+00
       -6  1    1    2    0  505 -4.4453055139e+00 -2.7200064993e+01 +9.1759456247e+01 1.9775844378e+02 1.7300000000e+02 0.0000e+00 -1.0000e+00
       21  1    1    2  504  503 -4.9618751938e+01 +6.3751387689e+01 +2.5262477418e+02 2.6522732986e+02 0.0000000000e+00 0.0000e+00 1.0000e+00
       21  1    1    2  505  502 +3.1211455168e+01 +5.0218140838e+01 +2.2159190482e+02 2.2934469448e+02 0.0000000000e+00 0.0000e+00 1.0000e+00
<mgrwt>
<rscale>  4 0.17632641E+03</rscale>
<asrwt>0</asrwt>
<pdfrwt beam="1">  1       21 0.11802885E+00 0.17632641E+03</pdfrwt>
<pdfrwt beam="2">  1       21 0.20302275E-01 0.17632641E+03</pdfrwt>
<totfact> 0.12491180E+04</totfact>
</mgrwt>
</event>
<event>
 6      1 +2.5168241e+02 2.51831200e+02 7.54677100e-03 1.11896800e-01
       21 -1    0    0  501  502 +0.0000000000e+00 +0.0000000000e+00 +4.6595367225e+02 4.6595367225e+02 0.0000000000e+00 0.0000e+00 -1.0000e+00
       21 -1    0    0  502  503 -0.0000000000e+00 -0.0000000000e+00 -2.6171128785e+02 2.6171128785e+02 0.0000000000e+00 0.0000e+00 -1.0000e+00
        6  1    1    2  501    0 -1.4149587792e+01 +1.2854796583e+02 +1.3916980261e+02 2.5694751275e+02 1.7300000000e+02 0.0000e+00 -1.0000e+00
       -6  1    1    2    0  505 +1.3181978858e+02 +6.8121532575e+01 +4.2944421113e+01 2.3192719368e+02 1.7300000000e+02 0.0000e+00 1.0000e+00
       21  1    1    2  504  503 -2.3380977613e+01 -1.8715129015e+01 +2.2400590424e+01 3.7399366565e+01 0.0000000000e+00 0.0000e+00 -1.0000e+00
       21  1    1    2  505  504 -9.4289223175e+01 -1.7795436939e+02 -2.7242974607e-01 2.0139088710e+02 0.0000000000e+00 0.0000e+00 -1.0000e+00
<mgrwt>
<rscale>  4 0.24235003E+03</rscale>
<asrwt>0</asrwt>
<pdfrwt beam="1">  1       21 0.71685180E-01 0.25183124E+03</pdfrwt>
<pdfrwt beam="2">  1       21 0.40263275E-01 0.25183124E+03</pdfrwt>
<totfact> 0.10072588E+04</totfact>
</mgrwt>
</event>
<event>
 6      1 +2.5168241e+02 2.47727300e+02 7.54677100e-03 1.16820100e-01
       21 -1    0    0  505  502 +0.0000000000e+00 +0.0000000000e+00 +1.1113406060e+02 1.1113406060e+02 0.0000000000e+00 0.0000e+00 -1.0000e+00
       21 -1    0    0  502  503 -0.0000000000e+00 -0.0000000000e+00 -8.1069994601e+02 8.1069994601e+02 0.0000000000e+00 0.0000e+00 1.0000e+00
        6  1    1    2  501    0 -5.3983238159e+01 -1.5656677550e+02 -1.8853468414e+02 3.0479775642e+02 1.7300000000e+02 0.0000e+00 -1.0000e+00
       -6  1    1    2    0  503 +4.1145337902e+01 +1.7944473887e+02 -4.6651799816e+02 5.3052935427e+02 1.7300000000e+02 0.0000e+00 1.0000e+00
       21  1    1    2  504  501 +4.0394788302e+01 -3.9976869854e+00 -2.1417737637e+01 4.5895968327e+01 0.0000000000e+00 0.0000e+00 -1.0000e+00
       21  1    1    2  505  504 -2.7556888045e+01 -1.8880276380e+01 -2.3095465469e+01 4.0610927595e+01 0.0000000000e+00 0.0000e+00 1.0000e+00
<mgrwt>
<rscale>  4 0.24772731E+03</rscale>
<asrwt>0</asrwt>
<pdfrwt beam="1">  1       21 0.17097548E-01 0.24772731E+03</pdfrwt>
<pdfrwt beam="2">  1       21 0.12472307E+00 0.24772731E+03</pdfrwt>
<totfact> 0.14309308E+04</totfact>
</mgrwt>
</event>
<event>
 6      1 +2.5168241e+02 2.21023100e+02 7.54677100e-03 1.12068800e-01
       21 -1    0    0  504  502 +0.0000000000e+00 +0.0000000000e+00 +1.6685537715e+03 1.6685537715e+03 0.0000000000e+00 0.0000e+00 -1.0000e+00
       21 -1    0    0  502  503 -0.0000000000e+00 -0.0000000000e+00 -1.3385007766e+02 1.3385007766e+02 0.0000000000e+00 0.0000e+00 -1.0000e+00
        6  1    1    2  501    0 -7.0465407107e+01 +1.0198449940e+02 +3.7402133782e+02 4.3033379238e+02 1.7300000000e+02 0.0000e+00 -1.0000e+00
       -6  1    1    2    0  505 +1.5991693101e+02 -4.0672386093e+00 +1.1684002383e+03 1.1919220126e+03 1.7300000000e+02 0.0000e+00 -1.0000e+00
       21  1    1    2  504  501 -1.1972148292e+02 -8.5738051720e+01 -8.6143168751e+00 1.4750746910e+02 0.0000000000e+00 0.0000e+00 -1.0000e+00
       21  1    1    2  505  503 +3.0269959017e+01 -1.2179209071e+01 +8.9643467168e-01 3.2640575173e+01 0.0000000000e+00 0.0000e+00 1.0000e+00
<mgrwt>
<rscale>  4 0.22102312E+03</rscale>
<asrwt>0</asrwt>
<pdfrwt beam="1">  1       21 0.25670057E+00 0.22102312E+03</pdfrwt>
<pdfrwt beam="2">  1       21 0.20592321E-01 0.22102312E+03</pdfrwt>
<totfact> 0.12849169E+03</totfact>
</mgrwt>
</event>
<event>
 6      1 +2.5168241e+02 2.39622200e+02 7.54677100e-03 1.06249800e-01
       21 -1    0    0  503  502 +0.0000000000e+00 +0.0000000000e+00 +5.4089581270e+02 5.4089581270e+02 0.0000000000e+00 0.0000e+00 1.0000e+00
       21 -1    0    0  501  503 -0.0000000000e+00 -0.0000000000e+00 -3.2895106960e+02 3.2895106960e+02 0.0000000000e+00 0.0000e+00 1.0000e+00
        6  1    1    2  501    0 +1.0076149617e+02 +1.1736968685e+02 +5.1811497217e+01 2.3778552047e+02 1.7300000000e+02 0.0000e+00 1.0000e+00
       -6  1    1    2    0  504 -1.5289579428e+02 -8.3117453829e+01 -1.6761874944e+02 2.9717112949e+02 1.7300000000e+02 0.0000e+00 1.0000e+00
       21  1    1    2  504  505 +3.1039899073e+01 -2.2076135766e+01 +1.2483474933e+02 1.3051645776e+02 0.0000000000e+00 0.0000e+00 -1.0000e+00
       21  1    1    2  505  502 +2.1094399035e+01 -1.2176097253e+01 +2.0291724599e+02 2.0437377457e+02 0.0000000000e+00 0.0000e+00 -1.0000e+00
<mgrwt>
<rscale>  4 0.23962217E+03</rscale>
<asrwt>0</asrwt>
<pdfrwt beam="1">  1       21 0.83214741E-01 0.23962217E+03</pdfrwt>
<pdfrwt beam="2">  1       21 0.50607857E-01 0.23962217E+03</pdfrwt>
<totfact> 0.45147071E+03</totfact>
</mgrwt>
</event>
<event>
 6      1 +2.5168241e+02 2.39280700e+02 7.54677100e-03 1.16820100e-01
       21 -1    0    0  504  502 +0.0000000000e+00 +0.0000000000e+00 +4.0767992547e+02 4.0767992547e+02 0.0000000000e+00 0.0000e+00 1.0000e+00
       21 -1    0    0  501  503 -0.0000000000e+00 -0.0000000000e+00 -2.6107768646e+02 2.6107768646e+02 0.0000000000e+00 0.0000e+00 -1.0000e+00
        6  1    1    2  501    0 -1.4651180931e+02 +2.1812167180e+01 -4.1455539279e+01 2.3149307256e+02 1.7300000000e+02 0.0000e+00 1.0000e+00
       -6  1    1    2    0  505 +1.6044037036e+02 +2.4867641781e+01 +1.4706786448e+02 2.7913700724e+02 1.7300000000e+02 0.0000e+00 -1.0000e+00
       21  1    1    2  504  503 -4.6680047481e+01 -5.8486726897e+01 -2.8763173768e+01 8.0168848197e+01 0.0000000000e+00 0.0000e+00 1.0000e+00
       21  1    1    2  505  502 +3.2751486435e+01 +1.1806917936e+01 +6.9753087567e+01 7.7958683929e+01 0.0000000000e+00 0.0000e+00 1.0000e+00
<mgrwt>
<rscale>  4 0.23928066E+03</rscale>
<asrwt>0</asrwt>
<pdfrwt beam="1">  1       21 0.62719988E-01 0.23928066E+03</pdfrwt>
<pdfrwt beam="2">  1       21 0.40165798E-01 0.23928066E+03</pdfrwt>
<totfact> 0.13677699E+04</totfact>
</mgrwt>
</event>
<event>
 6      1 +2.5168241e+02 1.84399000e+02 7.54677100e-03 1.11910500e-01
       21 -1    0    0  501  502 +0.0000000000e+00 +0.0000000000e+00 +2.3800413221e+02 2.3800413221e+02 0.0000000000e+00 0.0000e+00 1.0000e+00
       21 -1    0    0  504  503 -0.0000000000e+00 -0.0000000000e+00 -1.2349787094e+03 1.2349787094e+03 0.0000000000e+00 0.0000e+00 1.0000e+00
        6  1    1    2  501    0 -6.1722644746e+01 -1.2077923453e+01 +1.4487352281e+02 2.3424965042e+02 1.7300000000e+02 0.0000e+00 1.0000e+00
       -6  1    1    2    0  503 +3.9635116256e+01 +1.4751469899e+02 -6.0986994110e+02 6.5207505237e+02 1.7300000000e+02 0.0000e+00 1.0000e+00
       21  1    1    2  504  505 +2.9318989142e+01 +3.3846080257e+01 -2.7648187083e+02 2.8008460359e+02 0.0000000000e+00 0.0000e+00 1.0000e+00
       21  1    1    2  505  502 -7.2314606513e+00 -1.6928285579e+02 -2.5549628804e+02 3.0657353521e+02 0.0000000000e+00 0.0000e+00 1.0000e+00
<mgrwt>
<rscale>  4 0.18439898E+03</rscale>
<asrwt>0</asrwt>
<pdfrwt beam="1">  1       21 0.36616020E-01 0.18439898E+03</pdfrwt>
<pdfrwt beam="2">  1       21 0.18999673E+00 0.18439898E+03</pdfrwt>
<totfact> 0.11323789E+03</totfact>
</mgrwt>
</event>
<event>
 6      1 +2.5168241e+02 2.58983200e+02 7.54677100e-03 1.07064900e-01
       21 -1    0    0  505  502 +0.0000000000e+00 +0.0000000000e+00 +3.5653458040e+02 3.5653458040e+02 0.0000000000e+00 0.0000e+00 -1.0000e+00
       21 -1    0    0  504  503 -0.0000000000e+00 -0.0000000000e+00 -4.8526592876e+02 4.8526592876e+02 0.0000000000e+00 0.0000e+00 -1.0000e+00
        6  1    1    2  501    0 +1.9052887122e+02 -4.0017537398e+01 -3.2040312901e+02 4.1290412827e+02 1.7300000000e+02 0.0000e+00 -1.0000e+00
       -6  1    1    2    0  503 -1.7465724335e+02 +6.4849890267e+01 +1.0601191595e+02 2.7545995579e+02 1.7300000000e+02 0.0000e+00 -1.0000e+00
       21  1    1    2  504  502 -4.6163879347e+01 -1.1908246395e+00 -1.2652682099e+01 4.7881229976e+01 0.0000000000e+00 0.0000e+00 -1.0000e+00
       21  1    1    2  505  501 +3.0292251483e+01 -2.3641528230e+01 +9.8312546806e+01 1.0555519512e+02 0.0000000000e+00 0.0000e+00 -1.0000e+00
<mgrwt>
<rscale>  4 0.25898316E+03</rscale>
<asrwt>0</asrwt>
<pdfrwt beam="1">  1       21 0.54851474E-01 0.25898316E+03</pdfrwt>
<pdfrwt beam="2">  1       21 0.74656297E-01 0.25898316E+03</pdfrwt>
<totfact> 0.48125447E+03</totfact>
</mgrwt>
</event>
<event>
 6      1 +2.5168241e+02 2.46991700e+02 7.54677100e-03 1.16820100e-01
       21 -1    0    0  505  502 +0.0000000000e+00 +0.0000000000e+00 +9.7470829408e+01 9.7470829408e+01 0.0000000000e+00 0.0000e+00 1.0000e+00
       21 -1    0    0  504  503 -0.0000000000e+00 -0.0000000000e+00 -1.5057082044e+03 1.5057082044e+03 0.0000000000e+00 0.0000e+00 1.0000e+00
        6  1    1    2  501    0 +2.0472183226e+02 +7.3833240075e+00 -2.1752270086e+02 3.4526897843e+02 1.7300000000e+02 0.0000e+00 1.0000e+00
       -6  1    1    2    0  503 -1.5037150136e+02 -8.3279081471e+00 -1.1281571256e+03 1.1512377871e+03 1.7300000000e+02 0.0000e+00 1.0000e+00
       21  1    1    2  504  502 -2.5082824662e+01 -3.5058756656e+00 -7.1413937434e+01 7.5771958646e+01 0.0000000000e+00 0.0000e+00 1.0000e+00
       21  1    1    2  505  501 -2.9267506242e+01 +4.4504598053e+00 +8.8563888376e+00 3.0900309664e+01 0.0000000000e+00 0.0000e+00 -1.0000e+00
<mgrwt>
<rscale>  4 0.24699167E+03</rscale>
<asrwt>0</asrwt>
<pdfrwt beam="1">  1       21 0.14995514E-01 0.24699167E+03</pdfrwt>
<pdfrwt beam="2">  1       21 0.23164739E+00 0.24699167E+03</pdfrwt>
<totfact> 0.31880528E+03</totfact>
</mgrwt>
</event>
<event>
 6      1 +2.5168241e+02 2.10564600e+02 7.54677100e-03 1.11910500e-01
       21 -1    0    0  501  502 +0.0000000000e+00 +0.0000000000e+00 +1.0964935323e+02 1.0964935323e+02 0.0000000000e+00 0.0000e+00 1.0000e+00
       21 -1    0    0  504  503 -0.0000000000e+00 -0.0000000000e+00 -1.3585446997e+03 1.3585446997e+03 0.0000000000e+00 0.0000e+00 -1.0000e+00
        6  1    1    2  501    0 +1.1579233661e+02 +1.9771933564e+01 -3.6124315646e+01 2.1220923815e+02 1.7300000000e+02 0.0000e+00 1.0000e+00
       -6  1    1    2    0  503 -1.4351312584e+02 +5.4606657113e+01 -7.4621818992e+02 7.8124803441e+02 1.7300000000e+02 0.0000e+00 -1.0000e+00
       21  1    1    2  504  505 +2.4469875304e+01 -3.1945966789e+01 -1.4874191978e+02 1.5408918941e+02 0.0000000000e+00 0.0000e+00 -1.0000e+00
       21  1    1    2  505  502 +3.2509139335e+00 -4.2432623887e+01 -3.1781092116e+02 3.2064759101e+02 0.0000000000e+00 0.0000e+00 -1.0000e+00
<mgrwt>
<rscale>  4 0.21056461E+03</rscale>
<asrwt>0</asrwt>
<pdfrwt beam="1">  1       21 0.16869131E-01 0.21056461E+03</pdfrwt>
<pdfrwt beam="2">  1       21 0.20900689E+00 0.21056461E+03</pdfrwt>
<totfact> 0.36616346E+03</totfact>
</mgrwt>
</event>
<event>
 6      1 +2.5168241e+02 2.50470800e+02 7.54677100e-03 1.06249800e-01
       21 -1    0    0  503  502 +0.0000000000e+00 +0.0000000000e+00 +1.1040821593e+03 1.1040821593e+03 0.0000000000e+00 0.0000e+00 -1.0000e+00
       21 -1    0    0  501  503 -0.0000000000e+00 -0.0000000000e+00 -1.0346377736e+03 1.0346377736e+03 0.0000000000e+00 0.0000e+00 1.0000e+00
        6  1    1    2  501    0 +2.5336460015e+01 -1.5585766298e+01 -8.1806882162e+02 8.3669017516e+02 1.7300000000e+02 0.0000e+00 1.0000e+00
       -6  1    1    2    0  505 -7.8253450451e+01 +1.8785840807e+02 -1.0913865045e+02 2.8853878251e+02 1.7300000000e+02 0.0000e+00 1.0000e+00
       21  1    1    2  504  502 +6.3634925820e+00 -3.1945816320e+01 +2.6946081618e+02 2.7142247636e+02 0.0000000000e+00 0.0000e+00 -1.0000e+00
       21  1    1    2  505  504 +4.6553497855e+01 -1.4032682545e+02 +7.2719104161e+02 7.4206849893e+02 0.0000000000e+00 0.0000e+00 -1.0000e+00
<mgrwt>
<rscale>  4 0.22917173E+03</rscale>
<asrwt>0</asrwt>
<pdfrwt beam="1">  1       21 0.16985879E+00 0.25047078E+03</pdfrwt>
<pdfrwt beam="2">  1       21 0.15917504E+00 0.25047078E+03</pdfrwt>
<totfact> 0.50477637E+01</totfact>
</mgrwt>
</event>
<event>
 6      1 +2.5168241e+02 3.03954300e+02 7.54677100e-03 1.05831300e-01
       21 -1    0    0  504  502 +0.0000000000e+00 +0.0000000000e+00 +1.1820306006e+03 1.1820306006e+03 0.0000000000e+00 0.0000e+00 -1.0000e+00
       21 -1    0    0  501  503 -0.0000000000e+00 -0.0000000000e+00 -3.2527205363e+02 3.2527205363e+02 0.0000000000e+00 0.0000e+00 -1.0000e+00
        6  1    1    2  501    0 +1.7457560130e+02 -3.6351822471e+01 +2.5018710750e+02 3.5259138436e+02 1.7300000000e+02 0.0000e+00 -1.0000e+00
       -6  1    1    2    0  505 -2.6219693399e+02 +3.8723841324e+01 -7.6646443426e+01 3.2565387357e+02 1.7300000000e+02 0.0000e+00 -1.0000e+00
       21  1    1    2  504  503 -2.6945656190e+01 +1.4917390399e+01 -6.4996798302e+01 7.1924826822e+01 0.0000000000e+00 0.0000e+00 -1.0000e+00
       21  1    1    2  505  502 +1.1456698889e+02 -1.7289409251e+01 +7.4821468121e+02 7.5713256950e+02 0.0000000000e+00 0.0000e+00 -1.0000e+00
<mgrwt>
<rscale>  4 0.30395426E+03</rscale>
<asrwt>0</asrwt>
<pdfrwt beam="1">  1       21 0.18185086E+00 0.30395426E+03</pdfrwt>
<pdfrwt beam="2">  1       21 0.50041855E-01 0.30395426E+03</pdfrwt>
<totfact> 0.60710497E+02</totfact>
</mgrwt>
</event>
<event>
 6      1 +2.5168241e+02 2.40404100e+02 7.54677100e-03 1.04003000e-01
       21 -1    0    0  504  502 +0.0000000000e+00 +0.0000000000e+00 +2.4708162412e+02 2.4708162412e+02 0.0000000000e+00 0.0000e+00 1.0000e+00
       21 -1    0    0  502  503 -0.0000000000e+00 -0.0000000000e+00 -3.1433538331e+02 3.1433538331e+02 0.0000000000e+00 0.0000e+00 -1.0000e+00
        6  1    1    2  501    0 +1.4130401126e+02 -4.2269777723e+01 +2.4704805484e+01 2.2867637640e+02 1.7300000000e+02 0.0000e+00 -1.0000e+00
       -6  1    1    2    0  505 -1.6527770342e+02 +9.1931304744e+01 -6.6825657842e+01 2.6488252601e+02 1.7300000000e+02 0.0000e+00 -1.0000e+00
       21  1    1    2  504  501 +9.4263615632e+00 -2.8384726443e+01 -2.9159295689e+01 4.1770964947e+01 0.0000000000e+00 0.0000e+00 -1.0000e+00
       21  1    1    2  505  503 +1.4547330595e+01 -2.1276800578e+01 +4.0263888520e+00 2.6087140078e+01 0.0000000000e+00 0.0000e+00 -1.0000e+00
<mgrwt>
<rscale>  4 0.24040406E+03</rscale>
<asrwt>0</asrwt>
<pdfrwt beam="1">  1       21 0.38012558E-01 0.24040406E+03</pdfrwt>
<pdfrwt beam="2">  1       21 0.48359290E-01 0.24040406E+03</pdfrwt>
<totfact> 0.26584938E+04</totfact>
</mgrwt>
</event>
<event>
 6      1 +2.5168241e+02 2.16035300e+02 7.54677100e-03 1.12989000e-01
       21 -1    0    0  505  502 +0.0000000000e+00 +0.0000000000e+00 +2.5226352229e+02 2.5226352229e+02 0.0000000000e+00 0.0000e+00 1.0000e+00
       21 -1    0    0  504  503 -0.0000000000e+00 -0.0000000000e+00 -3.8470734115e+02 3.8470734115e+02 0.0000000000e+00 0.0000e+00 1.0000e+00
        6  1    1    2  501    0 +6.0156048193e+01 +1.3471206826e+02 -3.1798204362e+01 2.2957834669e+02 1.7300000000e+02 0.0000e+00 1.0000e+00
       -6  1    1    2    0  502 +5.7911598749e+01 -1.2508109562e+02 +3.5630100618e+01 2.2404807034e+02 1.7300000000e+02 0.0000e+00 1.0000e+00
       21  1    1    2  504  501 -2.1617503805e+01 -1.4514528615e+01 -3.0942469413e+01 4.0440381119e+01 0.0000000000e+00 0.0000e+00 -1.0000e+00
       21  1    1    2  505  503 -9.6450143137e+01 +4.8835559771e+00 -1.0533324570e+02 1.4290406530e+02 0.0000000000e+00 0.0000e+00 1.0000e+00
<mgrwt>
<rscale>  4 0.21603534E+03</rscale>
<asrwt>0</asrwt>
<pdfrwt beam="1">  1       21 0.38809773E-01 0.21603534E+03</pdfrwt>
<pdfrwt beam="2">  1       21 0.59185745E-01 0.21603534E+03</pdfrwt>
<totfact> 0.16839945E+04</totfact>
</mgrwt>
</event>
<event>
 6      1 +2.5168241e+02 2.88843900e+02 7.54677100e-03 1.16820100e-01
       21 -1    0    0  505  502 +0.0000000000e+00 +0.0000000000e+00 +4.2441022893e+02 4.2441022893e+02 0.0000000000e+00 0.0000e+00 -1.0000e+00
       21 -1    0    0  501  503 -0.0000000000e+00 -0.0000000000e+00 -4.4058828848e+02 4.4058828848e+02 0.0000000000e+00 0.0000e+00 -1.0000e+00
        6  1    1    2  501    0 -2.2273347851e+01 +2.1168813194e+02 -2.0298843554e+02 3.4123492229e+02 1.7300000000e+02 0.0000e+00 -1.0000e+00
       -6  1    1    2    0  502 -1.3877909267e+01 -2.5462399013e+02 +1.9338858333e+02 3.6380505340e+02 1.7300000000e+02 0.0000e+00 -1.0000e+00
       21  1    1    2  504  503 -2.6090217286e+01 +1.6303923086e+01 -6.4113354519e+01 7.1112865037e+01 0.0000000000e+00 0.0000e+00 -1.0000e+00
       21  1    1    2  505  504 +6.2241474404e+01 +2.6631935111e+01 +5.7535147190e+01 8.8845676686e+01 0.0000000000e+00 0.0000e+00 -1.0000e+00
<mgrwt>
<rscale>  4 0.28884388E+03</rscale>
<asrwt>0</asrwt>
<pdfrwt beam="1">  1       21 0.65293882E-01 0.28884388E+03</pdfrwt>
<pdfrwt beam="2">  1       21 0.67782813E-01 0.28884388E+03</pdfrwt>
<totfact> 0.40241725E+03</totfact>
</mgrwt>
</event>
<event>
 6      1 +2.5168241e+02 3.04378100e+02 7.54677100e-03 1.16820100e-01
       21 -1    0    0  505  502 +0.0000000000e+00 +0.0000000000e+00 +6.5555730195e+02 6.5555730195e+02 0.0000000000e+00 0.0000e+00 -1.0000e+00
       21 -1    0    0  501  503 -0.0000000000e+00 -0.0000000000e+00 -3.4871159259e+02 3.4871159259e+02 0.0000000000e+00 0.0000e+00 1.0000e+00
        6  1    1    2  501    0 +1.8138219606e+02 -2.6615793055e+01 -1.6396305916e+02 3.0070049261e+02 1.7300000000e+02 0.0000e+00 -1.0000e+00
       -6  1    1    2    0  502 -2.8534665491e+02 +4.6494811621e+01 +4.5533836149e+02 5.6643314205e+02 1.7300000000e+02 0.0000e+00 -1.0000e+00
       21  1    1    2  504  503 +7.5541728044e+01 -1.3294695529e+01 -3.0618503293e+01 8.2588100529e+01 0.0000000000e+00 0.0000e+00 1.0000e+00
       21  1    1    2  505  504 +2.8422730809e+01 -6.5843230376e+00 +4.6088910333e+01 5.4547159341e+01 0.0000000000e+00 0.0000e+00 -1.0000e+00
<mgrwt>
<rscale>  4 0.30437815E+03</rscale>
<asrwt>0</asrwt>
<pdfrwt beam="1">  1       21 0.10085497E+00 0.30437815E+03</pdfrwt>
<pdfrwt beam="2">  1       21 0.53647937E-01 0.30437815E+03</pdfrwt>
<totfact> 0.24434511E+03</totfact>
</mgrwt>
</event>
<event>
 6      1 +2.5168241e+02 1.93372700e+02 7.54677100e-03 1.12989000e-01
       21 -1    0    0  503  502 +0.0000000000e+00 +0.0000000000e+00 +6.9460627939e+02 6.9460627939e+02 0.0000000000e+00 0.0000e+00 -1.0000e+00
       21 -1    0    0  504  503 -0.0000000000e+00 -0.0000000000e+00 -1.6549821558e+02 1.6549821558e+02 0.0000000000e+00 0.0000e+00 -1.0000e+00
        6  1    1    2  501    0 +4.3714142369e+01 -7.5520670698e+01 +4.2595091864e+02 4.6795029975e+02 1.7300000000e+02 0.0000e+00 -1.0000e+00
       -6  1    1    2    0  502 -9.1877642684e+01 +3.6110907723e+01 +1.9404085639e+02 2.7807616372e+02 1.7300000000e+02 0.0000e+00 1.0000e+00
       21  1    1    2  504  505 +1.3576972879e+01 +2.8368781546e+01 -3.1760679704e+01 4.4697457805e+01 0.0000000000e+00 0.0000e+00 -1.0000e+00
       21  1    1    2  505  501 +3.4586527437e+01 +1.1040981430e+01 -5.9123031514e+01 6.9380573696e+01 0.0000000000e+00 0.0000e+00 -1.0000e+00
<mgrwt>
<rscale>  4 0.19337265E+03</rscale>
<asrwt>0</asrwt>
<pdfrwt beam="1">  1       21 0.10686250E+00 0.19337265E+03</pdfrwt>
<pdfrwt beam="2">  1       21 0.25461264E-01 0.19337265E+03</pdfrwt>
<totfact> 0.10239445E+04</totfact>
</mgrwt>
</event>
<event>
 6      1 +2.5168241e+02 2.05093700e+02 7.54677100e-03 1.07064900e-01
       21 -1    0    0  505  502 +0.0000000000e+00 +0.0000000000e+00 +1.3548043815e+02 1.3548043815e+02 0.0000000000e+00 0.0000e+00 -1.0000e+00
       21 -1    0    0  501  503 -0.0000000000e+00 -0.0000000000e+00 -7.2470563182e+02 7.2470563182e+02 0.0000000000e+00 0.0000e+00 -1.0000e+00
        6  1    1    2  501    0 -5.7088574431e+01 -1.2981893002e+02 -4.8190931136e+02 5.3129807481e+02 1.7300000000e+02 0.0000e+00 -1.0000e+00
       -6  1    1    2    0  502 +2.6099919000e+00 +2.3914866878e+01 -4.4227176793e+01 1.8017706869e+02 1.7300000000e+02 0.0000e+00 -1.0000e+00
       21  1    1    2  504  503 +9.8924521559e-01 +4.1868566705e+01 +3.4064589231e+00 4.2018560737e+01 0.0000000000e+00 0.0000e+00 1.0000e+00
       21  1    1    2  505  504 +5.3489337315e+01 +6.4035496439e+01 -6.6495164441e+01 1.0669236573e+02 0.0000000000e+00 0.0000e+00 -1.0000e+00
<mgrwt>
<rscale>  4 0.20509368E+03</rscale>
<asrwt>0</asrwt>
<pdfrwt beam="1">  1       21 0.20843145E-01 0.20509368E+03</pdfrwt>
<pdfrwt beam="2">  1       21 0.11149317E+00 0.20509368E+03</pdfrwt>
<totfact> 0.13392813E+04</totfact>
</mgrwt>
</event>
<event>
 6      1 +2.5168241e+02 1.74906500e+02 7.54677100e-03 1.05831300e-01
       21 -1    0    0  504  502 +0.0000000000e+00 +0.0000000000e+00 +9.1406791691e+02 9.1406791691e+02 0.0000000000e+00 0.0000e+00 -1.0000e+00
       21 -1    0    0  501  503 -0.0000000000e+00 -0.0000000000e+00 -5.7540792764e+02 5.7540792764e+02 0.0000000000e+00 0.0000e+00 -1.0000e+00
        6  1    1    2  501    0 -1.2400153140e+01 -2.5275709639e+01 -5.3098120865e+02 5.5916247124e+02 1.7300000000e+02 0.0000e+00 -1.0000e+00
       -6  1    1    2    0  505 +1.1528391542e+01 -4.0655912183e+01 +3.0825549448e+02 3.5600036079e+02 1.7300000000e+02 0.0000e+00 -1.0000e+00
       21  1    1    2  504  503 +1.1324669795e+01 +2.0664459820e+01 +1.9913812361e+01 3.0851709327e+01 0.0000000000e+00 0.0000e+00 -1.0000e+00
       21  1    1    2  505  502 -1.0452908198e+01 +4.5267162003e+01 +5.4147189108e+02 5.4346130320e+02 0.0000000000e+00 0.0000e+00 -1.0000e+00
<mgrwt>
<rscale>  4 0.17490655E+03</rscale>
<asrwt>0</asrwt>
<pdfrwt beam="1">  1       21 0.14062583E+00 0.17490655E+03</pdfrwt>
<pdfrwt beam="2">  1       21 0.88524296E-01 0.17490655E+03</pdfrwt>
<totfact> 0.39455515E+02</totfact>
</mgrwt>
</event>
<event>
 6      1 +2.5168241e+02 3.20584700e+02 7.54677100e-03 1.17132900e-01
       21 -1    0    0  503  502 +0.0000000000e+00 +0.0000000000e+00 +3.2026065880e+02 3.2026065880e+02 0.0000000000e+00 0.0000e+00 1.0000e+00
       21 -1    0    0  504  503 -0.0000000000e+00 -0.0000000000e+00 -4.5345365710e+02 4.5345365710e+02 0.0000000000e+00 0.0000e+00 -1.0000e+00
        6  1    1    2  501    0 -1.3579002443e+02 -2.0261712773e+02 -4.5819256825e+01 3.0252443783e+02 1.7300000000e+02 0.0000e+00 1.0000e+00
       -6  1    1    2    0  505 +1.5605478467e+02 +2.5381605920e+02 -5.0898343842e+01 3.4827478969e+02 1.7300000000e+02 0.0000e+00 -1.0000e+00
       21  1    1    2  504  501 -1.9566464346e+01 -2.6117490245e+01 -7.2215513671e+01 7.9246768000e+01 0.0000000000e+00 0.0000e+00 -1.0000e+00
       21  1    1    2  505  502 -6.9829589452e-01 -2.5081441220e+01 +3.5740116036e+01 4.3668320384e+01 0.0000000000e+00 0.0000e+00 1.0000e+00
<mgrwt>
<rscale>  4 0.32058468E+03</rscale>
<asrwt>0</asrwt>
<pdfrwt beam="1">  1       21 0.49270871E-01 0.32058468E+03</pdfrwt>
<pdfrwt beam="2">  1       21 0.69762101E-01 0.32058468E+03</pdfrwt>
<totfact> 0.68107336E+03</totfact>
</mgrwt>
</event>
<event>
 6      1 +2.5168241e+02 1.85225300e+02 7.54677100e-03 1.12989000e-01
       21 -1    0    0  505  502 +0.0000000000e+00 +0.0000000000e+00 +1.5799257517e+03 1.5799257517e+03 0.0000000000e+00 0.0000e+00 -1.0000e+00
       21 -1    0    0  504  503 -0.0000000000e+00 -0.0000000000e+00 -1.6010160652e+02 1.6010160652e+02 0.0000000000e+00 0.0000e+00 -1.0000e+00
        6  1    1    2  501    0 +2.4488183292e+01 -4.9646193694e+01 +1.1258523490e+03 1.1404108590e+03 1.7300000000e+02 0.0000e+00 -1.0000e+00
       -6  1    1    2    0  502 +3.5388740108e+01 +1.8163224836e+02 +2.0007592477e+02 3.2280336467e+02 1.7300000000e+02 0.0000e+00 -1.0000e+00
       21  1    1    2  504  501 -1.0742264888e+02 -1.1554256084e+02 +1.3823151263e+02 2.0975619166e+02 0.0000000000e+00 0.0000e+00 -1.0000e+00
       21  1    1    2  505  503 +4.7545725481e+01 -1.6443493822e+01 -4.4335641223e+01 6.7056942841e+01 0.0000000000e+00 0.0000e+00 -1.0000e+00
<mgrwt>
<rscale>  4 0.18522526E+03</rscale>
<asrwt>0</asrwt>
<pdfrwt beam="1">  1       21 0.24306549E+00 0.18522526E+03</pdfrwt>
<pdfrwt beam="2">  1       21 0.24631018E-01 0.18522526E+03</pdfrwt>
<totfact> 0.11489521E+03</totfact>
</mgrwt>
</event>
<event>
 6      1 +2.5168241e+02 2.16985700e+02 7.54677100e-03 1.03924000e-01
       21 -1    0    0  504  502 +0.0000000000e+00 +0.0000000000e+00 +6.3583111642e+02 6.3583111642e+02 0.0000000000e+00 0.0000e+00 1.0000e+00
       21 -1    0    0  501  503 -0.0000000000e+00 -0.0000000000e+00 -7.4301594974e+02 7.4301594974e+02 0.0000000000e+00 0.0000e+00 1.0000e+00
        6  1    1    2  501    0 -7.8064892053e+01 -1.3375818746e+02 +1.5831674320e+02 2.8103126385e+02 1.7300000000e+02 0.0000e+00 -1.0000e+00
       -6  1    1    2    0  505 +1.3482646817e+02 +7.3389258074e-01 -6.4975061743e+02 6.8577225080e+02 1.7300000000e+02 0.0000e+00 1.0000e+00
       21  1    1    2  504  503 -4.7449809240e+01 +1.0519748376e+02 +2.6144168182e+02 2.8577919445e+02 0.0000000000e+00 0.0000e+00 1.0000e+00
       21  1    1    2  505  502 -9.3117668757e+00 +2.7826811121e+01 +1.2280735908e+02 1.2626435706e+02 0.0000000000e+00 0.0000e+00 1.0000e+00
<mgrwt>
<rscale>  4 0.21698570E+03</rscale>
<asrwt>0</asrwt>
<pdfrwt beam="1">  1       21 0.97820171E-01 0.21698570E+03</pdfrwt>
<pdfrwt beam="2">  1       21 0.11431015E+00 0.21698570E+03</pdfrwt>
<totfact> 0.50128801E+02</totfact>
</mgrwt>
</event>
<event>
 6      1 +2.5168241e+02 2.06447700e+02 7.54677100e-03 1.16820100e-01
       21 -1    0    0  505  502 +0.0000000000e+00 +0.0000000000e+00 +3.1257990330e+02 3.1257990330e+02 0.0000000000e+00 0.0000e+00 1.0000e+00
       21 -1    0    0  501  503 -0.0000000000e+00 -0.0000000000e+00 -1.7593695248e+03 1.7593695248e+03 0.0000000000e+00 0.0000e+00 -1.0000e+00
        6  1    1    2  501    0 -1.8272277864e+02 +4.4549349034e+00 +1.0200501146e+02 2.7155383010e+02 1.7300000000e+02 0.0000e+00 1.0000e+00
       -6  1    1    2    0  502 +4.0824405982e+01 -4.5877410932e+00 -3.2798348962e+01 1.8081042887e+02 1.7300000000e+02 0.0000e+00 1.0000e+00
       21  1    1    2  504  503 +1.0060631295e+02 +1.3159599669e+00 -1.5576646244e+03 1.5609107739e+03 0.0000000000e+00 0.0000e+00 -1.0000e+00
       21  1    1    2  505  504 +4.1292059708e+01 -1.1831537770e+00 +4.1668340479e+01 5.8674395148e+01 0.0000000000e+00 0.0000e+00 1.0000e+00
<mgrwt>
<rscale>  4 0.20644773E+03</rscale>
<asrwt>0</asrwt>
<pdfrwt beam="1">  1       21 0.48089217E-01 0.20644773E+03</pdfrwt>
<pdfrwt beam="2">  1       21 0.27067223E+00 0.20644773E+03</pdfrwt>
<totfact> 0.20407612E+02</totfact>
</mgrwt>
</event>
<event>
 6      1 +2.5168241e+02 1.90156800e+02 7.54677100e-03 1.12989000e-01
       21 -1    0    0  503  502 +0.0000000000e+00 +0.0000000000e+00 +6.2805638884e+01 6.2805638884e+01 0.0000000000e+00 0.0000e+00 -1.0000e+00
       21 -1    0    0  501  503 -0.0000000000e+00 -0.0000000000e+00 -1.2268121559e+03 1.2268121559e+03 0.0000000000e+00 0.0000e+00 -1.0000e+00
        6  1    1    2  501    0 -5.1433584184e+01 -1.0715865312e+02 -3.7038206854e+02 4.2572322842e+02 1.7300000000e+02 0.0000e+00 -1.0000e+00
       -6  1    1    2    0  504 +1.8821897768e+01 +5.0720929222e+01 -2.1589231380e+02 2.8189602277e+02 1.7300000000e+02 0.0000e+00 -1.0000e+00
       21  1    1    2  504  505 +2.3696116443e+01 +1.8230443061e+01 -3.0445398346e+02 3.0591842545e+02 0.0000000000e+00 0.0000e+00 -1.0000e+00
       21  1    1    2  505  502 +8.9155699723e+00 +3.8207280842e+01 -2.7327815127e+02 2.7608011819e+02 0.0000000000e+00 0.0000e+00 -1.0000e+00
<mgrwt>
<rscale>  4 0.19015681E+03</rscale>
<asrwt>0</asrwt>
<pdfrwt beam="1">  1       21 0.96624072E-02 0.19015681E+03</pdfrwt>
<pdfrwt beam="2">  1       21 0.18874031E+00 0.19015681E+03</pdfrwt>
<totfact> 0.13733759E+04</totfact>
</mgrwt>
</event>
<event>
 6      1 +2.5168241e+02 1.73145600e+02 7.54677100e-03 1.07064900e-01
       21 -1    0    0  504  502 +0.0000000000e+00 +0.0000000000e+00 +5.0030268688e+02 5.0030268688e+02 0.0000000000e+00 0.0000e+00 1.0000e+00
       21 -1    0    0  501  503 -0.0000000000e+00 -0.0000000000e+00 -2.1110889810e+02 2.1110889810e+02 0.0000000000e+00 0.0000e+00 1.0000e+00
        6  1    1    2  501    0 +1.0156490501e+01 +1.0095934272e+01 -1.3158970850e+02 2.1783005663e+02 1.7300000000e+02 0.0000e+00 1.0000e+00
       -6  1    1    2    0  505 +1.8900263772e+01 +2.7878612329e+01 +2.0427649110e+02 2.6980052226e+02 1.7300000000e+02 0.0000e+00 1.0000e+00
       21  1    1    2  504  503 -9.3962092862e+00 -3.3612407516e+01 +1.1059182366e+02 1.1596824630e+02 0.0000000000e+00 0.0000e+00 1.0000e+00
       21  1    1    2  505  502 -1.9660544987e+01 -4.3621390859e+00 +1.0591518252e+02 1.0781275979e+02 0.0000000000e+00 0.0000e+00 -1.0000e+00
<mgrwt>
<rscale>  4 0.17314555E+03</rscale>
<asrwt>0</asrwt>
<pdfrwt beam="1">  1       21 0.76969643E-01 0.17314555E+03</pdfrwt>
<pdfrwt beam="2">  1       21 0.32478292E-01 0.17314555E+03</pdfrwt>
<totfact> 0.13864774E+04</totfact>
</mgrwt>
</event>
<event>
 6      1 +2.5168241e+02 2.07539200e+02 7.54677100e-03 1.03924000e-01
       21 -1    0    0  501  502 +0.0000000000e+00 +0.0000000000e+00 +3.5613384410e+02 3.5613384410e+02 0.0000000000e+00 0.0000e+00 1.0000e+00
       21 -1    0    0  502  503 -0.0000000000e+00 -0.0000000000e+00 -1.6762010170e+02 1.6762010170e+02 0.0000000000e+00 0.0000e+00 1.0000e+00
        6  1    1    2  501    0 -8.6978062234e+01 -1.1197654841e+02 +8.9253532925e+01 2.4083007255e+02 1.7300000000e+02 0.0000e+00 1.0000e+00
       -6  1    1    2    0  505 +7.9445814694e+01 +4.9682756677e+01 +7.5099426625e+01 2.1059187464e+02 1.7300000000e+02 0.0000e+00 1.0000e+00
       21  1    1    2  504  503 +4.6150372018e+00 +2.0809695347e+01 -4.5523777267e+00 2.1796011832e+01 0.0000000000e+00 0.0000e+00 1.0000e+00
       21  1    1    2  505  504 +2.9172103381e+00 +4.1484096389e+01 +2.8713160574e+01 5.0535986777e+01 0.0000000000e+00 0.0000e+00 1.0000e+00
<mgrwt>
<rscale>  4 0.20753919E+03</rscale>
<asrwt>0</asrwt>
<pdfrwt beam="1">  1       21 0.54789822E-01 0.20753919E+03</pdfrwt>
<pdfrwt beam="2">  1       21 0.25787708E-01 0.20753919E+03</pdfrwt>
<totfact> 0.44552947E+04</totfact>
</mgrwt>
</event>
<event>
 6      1 +2.5168241e+02 2.08968100e+02 7.54677100e-03 1.07064900e-01
       21 -1    0    0  504  502 +0.0000000000e+00 +0.0000000000e+00 +7.3440186314e+02 7.3440186314e+02 0.0000000000e+00 0.0000e+00 1.0000e+00
       21 -1    0    0  501  503 -0.0000000000e+00 -0.0000000000e+00 -9.5848010577e+02 9.5848010577e+02 0.0000000000e+00 0.0000e+00 -1.0000e+00
        6  1    1    2  501    0 +1.9390863444e+01 +1.0742763134e+02 -7.1193922285e+02 7.4074500241e+02 1.7300000000e+02 0.0000e+00 -1.0000e+00
       -6  1    1    2    0  505 -6.9597483250e+01 -1.3846477913e+02 -1.6909018037e+02 2.8729217503e+02 1.7300000000e+02 0.0000e+00 -1.0000e+00
       21  1    1    2  504  503 +4.1394244116e+01 +5.2945688277e+01 +5.9069956182e+02 5.9451047231e+02 0.0000000000e+00 0.0000e+00 1.0000e+00
       21  1    1    2  505  502 +8.8123756894e+00 -2.1908540487e+01 +6.6251598778e+01 7.0334319163e+01 0.0000000000e+00 0.0000e+00 1.0000e+00
<mgrwt>
<rscale>  4 0.20896812E+03</rscale>
<asrwt>0</asrwt>
<pdfrwt beam="1">  1       21 0.11298490E+00 0.20896812E+03</pdfrwt>
<pdfrwt beam="2">  1       21 0.14745848E+00 0.20896812E+03</pdfrwt>
<totfact> 0.18747126E+02</totfact>
</mgrwt>
</event>
<event>
 6      1 +2.5168241e+02 2.08325600e+02 7.54677100e-03 9.87464100e-02
       21 -1    0    0  503  502 +0.0000000000e+00 +0.0000000000e+00 +2.7641651731e+02 2.7641651731e+02 0.0000000000e+00 0.0000e+00 1.0000e+00
       21 -1    0    0  505  503 -0.0000000000e+00 -0.0000000000e+00 -3.0598786583e+02 3.0598786583e+02 0.0000000000e+00 0.0000e+00 1.0000e+00
        6  1    1    2  501    0 +6.2603635561e+01 +7.3624321887e+01 +5.6941146360e+01 2.0618207999e+02 1.7300000000e+02 0.0000e+00 1.0000e+00
       -6  1    1    2    0  504 -2.3527582434e+01 -1.6739140270e+02 -5.1700973412e+01 2.4733665212e+02 1.7300000000e+02 0.0000e+00 1.0000e+00
       21  1    1    2  504  502 -2.2786586896e+01 +7.9186678441e+00 +1.4900488481e+01 2.8354160185e+01 0.0000000000e+00 0.0000e+00 1.0000e+00
       21  1    1    2  505  501 -1.6289466231e+01 +8.5848412966e+01 -4.9712009948e+01 1.0053149085e+02 0.0000000000e+00 0.0000e+00 1.0000e+00
<mgrwt>
<rscale>  4 0.20832561E+03</rscale>
<asrwt>0</asrwt>
<pdfrwt beam="1">  1       21 0.42525618E-01 0.20832561E+03</pdfrwt>
<pdfrwt beam="2">  1       21 0.47075056E-01 0.20832561E+03</pdfrwt>
<totfact> 0.22764977E+04</totfact>
</mgrwt>
</event>
<event>
 6      1 +2.5168241e+02 2.42961300e+02 7.54677100e-03 1.05831300e-01
       21 -1    0    0  504  502 +0.0000000000e+00 +0.0000000000e+00 +3.5387126472e+02 3.5387126472e+02 0.0000000000e+00 0.0000e+00 -1.0000e+00
       21 -1    0    0  501  503 -0.0000000000e+00 -0.0000000000e+00 -3.0470647232e+02 3.0470647232e+02 0.0000000000e+00 0.0000e+00 1.0000e+00
        6  1    1    2  501    0 +4.4623685538e+01 +1.6802038075e+02 -1.2408875701e+02 2.7486204044e+02 1.7300000000e+02 0.0000e+00 1.0000e+00
       -6  1    1    2    0  505 -4.9682314088e+01 -1.5661358499e+02 +5.2695644696e+01 2.4433988276e+02 1.7300000000e+02 0.0000e+00 -1.0000e+00
       21  1    1    2  504  503 +2.4925425129e+01 -9.0367259231e+00 +1.2198262915e+01 2.9184531029e+01 0.0000000000e+00 0.0000e+00 1.0000e+00
       21  1    1    2  505  502 -1.9866796578e+01 -2.3700698280e+00 +1.0835964180e+02 1.1019128282e+02 0.0000000000e+00 0.0000e+00 -1.0000e+00
<mgrwt>
<rscale>  4 0.24296130E+03</rscale>
<asrwt>0</asrwt>
<pdfrwt beam="1">  1       21 0.54441733E-01 0.24296130E+03</pdfrwt>
<pdfrwt beam="2">  1       21 0.46877919E-01 0.24296130E+03</pdfrwt>
<totfact> 0.13471490E+04</totfact>
</mgrwt>
</event>
<event>
 6      1 +2.5168241e+02 2.29582700e+02 7.54677100e-03 1.11671100e-01
       21 -1    0    0  503  502 +0.0000000000e+00 +0.0000000000e+00 +1.0568551909e+02 1.0568551909e+02 0.0000000000e+00 0.0000e+00 -1.0000e+00
       21 -1    0    0  501  503 -0.0000000000e+00 -0.0000000000e+00 -7.3201373997e+02 7.3201373997e+02 0.0000000000e+00 0.0000e+00 1.0000e+00
        6  1    1    2  501    0 -9.7165302905e+01 -1.3539160601e+02 -3.5936927389e+02 4.3225832332e+02 1.7300000000e+02 0.0000e+00 1.0000e+00
       -6  1    1    2    0  504 +2.7297606189e+01 +1.3647891099e+02 -2.3276385231e+02 3.2168255065e+02 1.7300000000e+02 0.0000e+00 1.0000e+00
       21  1    1    2  504  505 +4.4955788745e+01 -2.3148509922e+00 -3.7512421724e+01 5.8596614752e+01 0.0000000000e+00 0.0000e+00 1.0000e+00
       21  1    1    2  505  502 +2.4911907971e+01 +1.2275460157e+00 +3.3173270453e+00 2.5161770341e+01 0.0000000000e+00 0.0000e+00 -1.0000e+00
<mgrwt>
<rscale>  4 0.22958271E+03</rscale>
<asrwt>0</asrwt>
<pdfrwt beam="1">  1       21 0.16259310E-01 0.22958271E+03</pdfrwt>
<pdfrwt beam="2">  1       21 0.11261750E+00 0.22958271E+03</pdfrwt>
<totfact> 0.20429872E+04</totfact>
</mgrwt>
</event>
<event>
 6      1 +2.5168241e+02 2.48236800e+02 7.54677100e-03 9.87464100e-02
       21 -1    0    0  503  502 +0.0000000000e+00 +0.0000000000e+00 +3.5325033486e+02 3.5325033486e+02 0.0000000000e+00 0.0000e+00 -1.0000e+00
       21 -1    0    0  505  503 -0.0000000000e+00 -0.0000000000e+00 -2.7679188114e+02 2.7679188114e+02 0.0000000000e+00 0.0000e+00 1.0000e+00
        6  1    1    2  501    0 +3.7860150134e+01 -1.7647030753e+02 -7.4596816441e+01 2.6090006790e+02 1.7300000000e+02 0.0000e+00 1.0000e+00
       -6  1    1    2    0  504 -5.3198078729e+01 +1.5078356931e+02 +1.6311871741e+02 2.8653522702e+02 1.7300000000e+02 0.0000e+00 -1.0000e+00
       21  1    1    2  504  502 -8.3029391504e+00 +2.9792724692e+01 +2.4098601953e+01 3.9208262639e+01 0.0000000000e+00 0.0000e+00 -1.0000e+00
       21  1    1    2  505  501 +2.3640867745e+01 -4.1059864647e+00 -3.6162049193e+01 4.3398658440e+01 0.0000000000e+00 0.0000e+00 1.0000e+00
<mgrwt>
<rscale>  4 0.24823679E+03</rscale>
<asrwt>0</asrwt>
<pdfrwt beam="1">  1       21 0.54346205E-01 0.24823679E+03</pdfrwt>
<pdfrwt beam="2">  1       21 0.42583366E-01 0.24823679E+03</pdfrwt>
<totfact> 0.16442821E+04</totfact>
</mgrwt>
</event>
<event>
 6      1 +2.5168241e+02 1.88732700e+02 7.54677100e-03 1.17132900e-01
       21 -1    0    0  505  502 +0.0000000000e+00 +0.0000000000e+00 +9.5031567058e+02 9.5031567058e+02 0.0000000000e+00 0.0000e+00 1.0000e+00
       21 -1    0    0  504  503 -0.0000000000e+00 -0.0000000000e+00 -1.0370932541e+02 1.0370932541e+02 0.0000000000e+00 0.0000e+00 1.0000e+00
        6  1    1    2  501    0 -6.3271416812e+01 +5.3552305117e+01 +3.3750116987e+02 3.8821020238e+02 1.7300000000e+02 0.0000e+00 -1.0000e+00
       -6  1    1    2    0  502 +5.6949231191e+01 +9.2288512800e+01 +1.5969334874e+02 2.5921294366e+02 1.7300000000e+02 0.0000e+00 -1.0000e+00
       21  1    1    2  504  501 +2.4892938321e+01 +2.2341935637e+01 +2.9057768680e+01 4.4307723784e+01 0.0000000000e+00 0.0000e+00 -1.0000e+00
       21  1    1    2  505  503 -1.8570752700e+01 -1.6818275355e+02 +3.2035405788e+02 3.6229412616e+02 0.0000000000e+00 0.0000e+00 1.0000e+00
<mgrwt>
<rscale>  4 0.18873267E+03</rscale>
<asrwt>0</asrwt>
<pdfrwt beam="1">  1       21 0.14620241E+00 0.18873267E+03</pdfrwt>
<pdfrwt beam="2">  1       21 0.15955281E-01 0.18873267E+03</pdfrwt>
<totfact> 0.11237085E+04</totfact>
</mgrwt>
</event>
<event>
 6      1 +2.5168241e+02 2.25214900e+02 7.54677100e-03 1.09842800e-01
       21 -1    0    0  505  502 +0.0000000000e+00 +0.0000000000e+00 +4.8532871314e+02 4.8532871314e+02 0.0000000000e+00 0.0000e+00 1.0000e+00
       21 -1    0    0  502  503 -0.0000000000e+00 -0.0000000000e+00 -2.0983995989e+02 2.0983995989e+02 0.0000000000e+00 0.0000e+00 1.0000e+00
        6  1    1    2  501    0 -2.8041136217e+01 -1.2103955563e+02 +2.6081558461e+02 3.3673527959e+02 1.7300000000e+02 0.0000e+00 1.0000e+00
       -6  1    1    2    0  504 +5.4984056883e+01 +1.5568673663e+02 -6.9966149016e+01 2.4917036036e+02 1.7300000000e+02 0.0000e+00 1.0000e+00
       21  1    1    2  504  503 -1.5079866519e+01 -1.6133579485e+01 +2.8043781150e-01 2.2085592738e+01 0.0000000000e+00 0.0000e+00 1.0000e+00
       21  1    1    2  505  501 -1.1863054147e+01 -1.8513601508e+01 +8.4358879849e+01 8.7177440338e+01 0.0000000000e+00 0.0000e+00 1.0000e+00
<mgrwt>
<rscale>  4 0.22521495E+03</rscale>
<asrwt>0</asrwt>
<pdfrwt beam="1">  1       21 0.74665956E-01 0.22521495E+03</pdfrwt>
<pdfrwt beam="2">  1       21 0.32283071E-01 0.22521495E+03</pdfrwt>
<totfact> 0.14528092E+04</totfact>
</mgrwt>
</event>
<event>
 6      1 +2.5168241e+02 1.75294900e+02 7.54677100e-03 1.16820100e-01
       21 -1    0    0  501  502 +0.0000000000e+00 +0.0000000000e+00 +3.2753333384e+02 3.2753333384e+02 0.0000000000e+00 0.0000e+00 1.0000e+00
       21 -1    0    0  504  503 -0.0000000000e+00 -0.0000000000e+00 -2.1425880887e+02 2.1425880887e+02 0.0000000000e+00 0.0000e+00 1.0000e+00
        6  1    1    2  501    0 +1.6738615323e+01 +5.2673199564e+01 +1.5918779739e+02 2.4150445551e+02 1.7300000000e+02 0.0000e+00 1.0000e+00
       -6  1    1    2    0  503 -6.5179141968e+00 +1.6278208988e+01 -7.9843370196e+01 1.9134112746e+02 1.7300000000e+02 0.0000e+00 1.0000e+00
       21  1    1    2  504  505 -1.1097525529e+01 -4.4913997066e+01 -1.9611838517e+01 5.0249839953e+01 0.0000000000e+00 0.0000e+00 1.0000e+00
       21  1    1    2  505  502 +8.7682440281e-01 -2.4037411486e+01 +5.3541936292e+01 5.8696719788e+01 0.0000000000e+00 0.0000e+00 -1.0000e+00
<mgrwt>
<rscale>  4 0.17529490E+03</rscale>
<asrwt>0</asrwt>
<pdfrwt beam="1">  1       21 0.50389743E-01 0.17529490E+03</pdfrwt>
<pdfrwt beam="2">  1       21 0.32962894E-01 0.17529490E+03</pdfrwt>
<totfact> 0.33526223E+04</totfact>
</mgrwt>
</event>
<event>
 6      1 +2.5168241e+02 1.73053900e+02 7.54677100e-03 1.04003000e-01
       21 -1    0    0  504  502 +0.0000000000e+00 +0.0000000000e+00 +1.1983518709e+02 1.1983518709e+02 0.0000000000e+00 0.0000e+00 -1.0000e+00
       21 -1    0    0  502  503 -0.0000000000e+00 -0.0000000000e+00 -1.8170198650e+03 1.8170198650e+03 0.0000000000e+00 0.0000e+00 1.0000e+00
        6  1    1    2  501    0 -3.2312020929e+01 -1.0184584765e+01 -6.1696152028e+01 1.8677046779e+02 1.7300000000e+02 0.0000e+00 1.0000e+00
       -6  1    1    2    0  505 -2.6728735178e+01 -1.0559283299e+01 -8.1789030225e+01 1.9350547593e+02 1.7300000000e+02 0.0000e+00 -1.0000e+00
       21  1    1    2  504  501 +4.1850900176e+01 +9.4059517512e+00 -1.4605882255e+03 1.4612179626e+03 0.0000000000e+00 0.0000e+00 1.0000e+00
       21  1    1    2  505  503 +1.7189855931e+01 +1.1337916312e+01 -9.3111270178e+01 9.5361145795e+01 0.0000000000e+00 0.0000e+00 -1.0000e+00
<mgrwt>
<rscale>  4 0.17305387E+03</rscale>
<asrwt>0</asrwt>
<pdfrwt beam="1">  1       21 0.18436183E-01 0.17305387E+03</pdfrwt>
<pdfrwt beam="2">  1       21 0.27954152E+00 0.17305387E+03</pdfrwt>
<totfact> 0.12347178E+03</totfact>
</mgrwt>
</event>
<event>
 6      1 +2.5168241e+02 1.85892900e+02 7.54677100e-03 1.05831300e-01
       21 -1    0    0  504  502 +0.0000000000e+00 +0.0000000000e+00 +2.3100722367e+02 2.3100722367e+02 0.0000000000e+00 0.0000e+00 -1.0000e+00
       21 -1    0    0  501  503 -0.0000000000e+00 -0.0000000000e+00 -1.1134945170e+03 1.1134945170e+03 0.0000000000e+00 0.0000e+00 -1.0000e+00
        6  1    1    2  501    0 -5.2229545101e+01 +4.4128082668e+01 -1.0024980321e+03 1.0196109637e+03 1.7300000000e+02 0.0000e+00 -1.0000e+00
       -6  1    1    2    0  505 +5.6778278066e+01 -3.1450972150e+01 +2.1296140138e+01 1.8599855401e+02 1.7300000000e+02 0.0000e+00 -1.0000e+00
       21  1    1    2  504  503 +8.7292121469e+00 -3.2410345396e+01 -3.6847135874e+00 3.3766947562e+01 0.0000000000e+00 0.0000e+00 1.0000e+00
       21  1    1    2  505  502 -1.3277945112e+01 +1.9733234879e+01 +1.0239931218e+02 1.0512527537e+02 0.0000000000e+00 0.0000e+00 -1.0000e+00
<mgrwt>
<rscale>  4 0.18589293E+03</rscale>
<asrwt>0</asrwt>
<pdfrwt beam="1">  1       21 0.35539573E-01 0.18589293E+03</pdfrwt>
<pdfrwt beam="2">  1       21 0.17130685E+00 0.18589293E+03</pdfrwt>
<totfact> 0.16060914E+03</totfact>
</mgrwt>
</event>
<event>
 6      1 +2.5168241e+02 2.53760400e+02 7.54677100e-03 1.15942100e-01
       21 -1    0    0  503  502 +0.0000000000e+00 +0.0000000000e+00 +5.4763703491e+02 5.4763703491e+02 0.0000000000e+00 0.0000e+00 1.0000e+00
       21 -1    0    0  501  503 -0.0000000000e+00 -0.0000000000e+00 -2.4326038615e+02 2.4326038615e+02 0.0000000000e+00 0.0000e+00 1.0000e+00
        6  1    1    2  501    0 +1.6866601071e+02 +9.3337791002e+01 +2.2421503048e+02 3.4258071500e+02 1.7300000000e+02 0.0000e+00 1.0000e+00
       -6  1    1    2    0  505 -5.9785329754e+01 +6.0293964188e+01 -6.0181634022e+01 2.0189224068e+02 1.7300000000e+02 0.0000e+00 -1.0000e+00
       21  1    1    2  504  502 -8.9780234268e+01 -8.2189238340e+01 +1.1710957533e+02 1.6890889260e+02 0.0000000000e+00 0.0000e+00 1.0000e+00
       21  1    1    2  505  504 -1.9100446693e+01 -7.1442516849e+01 +2.3233676969e+01 7.7515572778e+01 0.0000000000e+00 0.0000e+00 -1.0000e+00
<mgrwt>
<rscale>  4 0.23688968E+03</rscale>
<asrwt>0</asrwt>
<pdfrwt beam="1">  1       21 0.84251851E-01 0.25376040E+03</pdfrwt>
<pdfrwt beam="2">  1       21 0.37424675E-01 0.25376040E+03</pdfrwt>
<totfact> 0.80930554E+03</totfact>
</mgrwt>
</event>
<event>
 6      1 +2.5168241e+02 2.02043600e+02 7.54677100e-03 1.17132900e-01
       21 -1    0    0  505  502 +0.0000000000e+00 +0.0000000000e+00 +3.1790447697e+02 3.1790447697e+02 0.0000000000e+00 0.0000e+00 -1.0000e+00
       21 -1    0    0  504  503 -0.0000000000e+00 -0.0000000000e+00 -4.6222404722e+02 4.6222404722e+02 0.0000000000e+00 0.0000e+00 -1.0000e+00
        6  1    1    2  501    0 -2.1283579042e+02 -6.2265062469e+01 +2.0871694758e+01 2.8202950081e+02 1.7300000000e+02 0.0000e+00 -1.0000e+00
       -6  1    1    2    0  502 +2.7255086288e+00 +3.5833430133e+01 +1.4796496706e+01 1.7731158853e+02 1.7300000000e+02 0.0000e+00 -1.0000e+00
       21  1    1    2  504  501 +9.1825049414e+01 -2.5971975206e+01 -1.6492084835e+02 1.9053941696e+02 0.0000000000e+00 0.0000e+00 -1.0000e+00
       21  1    1    2  505  503 +1.1828523238e+02 +5.2403607542e+01 -1.5066913361e+01 1.3024801787e+02 0.0000000000e+00 0.0000e+00 -1.0000e+00
<mgrwt>
<rscale>  4 0.20204357E+03</rscale>
<asrwt>0</asrwt>
<pdfrwt beam="1">  1       21 0.48908381E-01 0.20204357E+03</pdfrwt>
<pdfrwt beam="2">  1       21 0.71111391E-01 0.20204357E+03</pdfrwt>
<totfact> 0.70906032E+03</totfact>
</mgrwt>
</event>
<event>
 6      1 +2.5168241e+02 2.41041300e+02 7.54677100e-03 1.15942100e-01
       21 -1    0    0  504  502 +0.0000000000e+00 +0.0000000000e+00 +2.1613714225e+03 2.1613714225e+03 0.0000000000e+00 0.0000e+00 -1.0000e+00
       21 -1    0    0  501  503 -0.0000000000e+00 -0.0000000000e+00 -1.7514425604e+03 1.7514425604e+03 0.0000000000e+00 0.0000e+00 1.0000e+00
        6  1    1    2  501    0 -5.8118080298e+01 -1.8903570495e+02 +2.3986678385e+02 3.5577701303e+02 1.7300000000e+02 0.0000e+00 -1.0000e+00
       -6  1    1    2    0  502 +5.0975227531e+01 +1.5578552648e+02 +1.8554037958e+03 1.8706469067e+03 1.7300000000e+02 0.0000e+00 -1.0000e+00
       21  1    1    2  504  505 +2.2609434016e+01 +1.1958334703e+00 -4.9690891107e+02 4.9742444896e+02 0.0000000000e+00 0.0000e+00 -1.0000e+00
       21  1    1    2  505  503 -1.5466581250e+01 +3.2054344994e+01 -1.1884328065e+03 1.1889656142e+03 0.0000000000e+00 0.0000e+00 1.0000e+00
<mgrwt>
<rscale>  4 0.24104131E+03</rscale>
<asrwt>0</asrwt>
<pdfrwt beam="1">  1       21 0.33251868E+00 0.24104131E+03</pdfrwt>
<pdfrwt beam="2">  1       21 0.26945270E+00 0.24104131E+03</pdfrwt>
<totfact> 0.10139190E+00</totfact>
</mgrwt>
</event>
<event>
 6      1 +2.5168241e+02 1.95457600e+02 7.54677100e-03 1.15942100e-01
       21 -1    0    0  504  502 +0.0000000000e+00 +0.0000000000e+00 +4.1214956625e+02 4.1214956625e+02 0.0000000000e+00 0.0000e+00 -1.0000e+00
       21 -1    0    0  501  503 -0.0000000000e+00 -0.0000000000e+00 -8.0407964216e+02 8.0407964216e+02 0.0000000000e+00 0.0000e+00 -1.0000e+00
        6  1    1    2  501    0 -1.3026732664e+02 -1.4494024586e+02 -6.5059956187e+01 2.6858713513e+02 1.7300000000e+02 0.0000e+00 -1.0000e+00
       -6  1    1    2    0  502 +7.5343710297e+01 +1.5717683380e+01 +2.6707793732e+02 3.2738867552e+02 1.7300000000e+02 0.0000e+00 -1.0000e+00
       21  1    1    2  504  505 +4.1922540609e+01 +1.3063994659e+01 -3.1144154892e+02 3.1452186850e+02 0.0000000000e+00 0.0000e+00 -1.0000e+00
       21  1    1    2  505  503 +1.3001075734e+01 +1.1615856782e+02 -2.8250650813e+02 3.0573152926e+02 0.0000000000e+00 0.0000e+00 -1.0000e+00
<mgrwt>
<rscale>  4 0.19545755E+03</rscale>
<asrwt>0</asrwt>
<pdfrwt beam="1">  1       21 0.63407627E-01 0.19545755E+03</pdfrwt>
<pdfrwt beam="2">  1       21 0.12370456E+00 0.19545755E+03</pdfrwt>
<totfact> 0.11230233E+03</totfact>
</mgrwt>
</event>
<event>
 6      1 +2.5168241e+02 2.00534400e+02 7.54677100e-03 1.16820100e-01
       21 -1    0    0  504  502 +0.0000000000e+00 +0.0000000000e+00 +1.1945469490e+03 1.1945469490e+03 0.0000000000e+00 0.0000e+00 1.0000e+00
       21 -1    0    0  501  503 -0.0000000000e+00 -0.0000000000e+00 -2.1271355037e+02 2.1271355037e+02 0.0000000000e+00 0.0000e+00 1.0000e+00
        6  1    1    2  501    0 +1.3323075698e+02 +1.6046026721e+01 +1.6299901079e+02 2.7295711586e+02 1.7300000000e+02 0.0000e+00 1.0000e+00
       -6  1    1    2    0  505 -8.7797452446e+01 +5.6165820707e+01 +2.4804373403e+02 3.1987135861e+02 1.7300000000e+02 0.0000e+00 1.0000e+00
       21  1    1    2  504  503 -7.1460832401e+01 -3.1174346203e+01 -1.0838875255e+02 1.3351633648e+02 0.0000000000e+00 0.0000e+00 1.0000e+00
       21  1    1    2  505  502 +2.6027527865e+01 -4.1037501224e+01 +6.7917940639e+02 6.8091568845e+02 0.0000000000e+00 0.0000e+00 1.0000e+00
<mgrwt>
<rscale>  4 0.20053441E+03</rscale>
<asrwt>0</asrwt>
<pdfrwt beam="1">  1       21 0.18377645E+00 0.20053441E+03</pdfrwt>
<pdfrwt beam="2">  1       21 0.32725162E-01 0.20053441E+03</pdfrwt>
<totfact> 0.15294345E+03</totfact>
</mgrwt>
</event>
<event>
 6      1 +2.5168241e+02 2.05673400e+02 7.54677100e-03 1.09842800e-01
       21 -1    0    0  504  502 +0.0000000000e+00 +0.0000000000e+00 +1.0292452854e+03 1.0292452854e+03 0.0000000000e+00 0.0000e+00 1.0000e+00
       21 -1    0    0  505  503 -0.0000000000e+00 -0.0000000000e+00 -9.4053286054e+01 9.4053286054e+01 0.0000000000e+00 0.0000e+00 -1.0000e+00
        6  1    1    2  501    0 -9.7924886455e+01 -4.4899657378e+01 +1.2268008378e+02 2.3787531519e+02 1.7300000000e+02 0.0000e+00 -1.0000e+00
       -6  1    1    2    0  503 +1.2224990972e+02 +9.8604795604e+00 +3.1367783528e+02 3.7863577991e+02 1.7300000000e+02 0.0000e+00 1.0000e+00
       21  1    1    2  504  501 -3.3353068954e+01 +1.6082897513e+01 +8.8729660387e+01 9.6145927804e+01 0.0000000000e+00 0.0000e+00 1.0000e+00
       21  1    1    2  505  502 +9.0280456894e+00 +1.8956280306e+01 +4.1010441989e+02 4.1064154854e+02 0.0000000000e+00 0.0000e+00 1.0000e+00
<mgrwt>
<rscale>  4 0.20567345E+03</rscale>
<asrwt>0</asrwt>
<pdfrwt beam="1">  1       21 0.15834542E+00 0.20567345E+03</pdfrwt>
<pdfrwt beam="2">  1       21 0.14469737E-01 0.20567345E+03</pdfrwt>
<totfact> 0.10734492E+04</totfact>
</mgrwt>
</event>
<event>
 6      1 +2.5168241e+02 3.07925000e+02 7.54677100e-03 1.16820100e-01
       21 -1    0    0  505  502 +0.0000000000e+00 +0.0000000000e+00 +5.4066079626e+02 5.4066079626e+02 0.0000000000e+00 0.0000e+00 1.0000e+00
       21 -1    0    0  501  503 -0.0000000000e+00 -0.0000000000e+00 -1.1340486152e+03 1.1340486152e+03 0.0000000000e+00 0.0000e+00 -1.0000e+00
        6  1    1    2  501    0 +2.3587117912e+02 +3.8024681261e+00 -4.3158299041e+02 5.2138522180e+02 1.7300000000e+02 0.0000e+00 -1.0000e+00
       -6  1    1    2    0  502 -2.3763441263e+02 +3.5795416127e+01 -8.4735190102e+01 3.0799428294e+02 1.7300000000e+02 0.0000e+00 1.0000e+00
       21  1    1    2  504  503 +5.1089515126e+01 +1.2515507971e+01 -4.5632474444e+02 4.5934632783e+02 0.0000000000e+00 0.0000e+00 -1.0000e+00
       21  1    1    2  505  504 -4.9326281617e+01 -5.2113392224e+01 +3.7925510603e+02 3.8598357887e+02 0.0000000000e+00 0.0000e+00 1.0000e+00
<mgrwt>
<rscale>  4 0.30792498E+03</rscale>
<asrwt>0</asrwt>
<pdfrwt beam="1">  1       21 0.83178586E-01 0.30792498E+03</pdfrwt>
<pdfrwt beam="2">  1       21 0.17446901E+00 0.30792498E+03</pdfrwt>
<totfact> 0.22267335E+02</totfact>
</mgrwt>
</event>
<event>
 6      1 +2.5168241e+02 1.85338800e+02 7.54677100e-03 1.16820100e-01
       21 -1    0    0  501  502 +0.0000000000e+00 +0.0000000000e+00 +5.9715090450e+02 5.9715090450e+02 0.0000000000e+00 0.0000e+00 1.0000e+00
       21 -1    0    0  504  503 -0.0000000000e+00 -0.0000000000e+00 -2.8684669049e+02 2.8684669049e+02 0.0000000000e+00 0.0000e+00 1.0000e+00
        6  1    1    2  501    0 -4.6879033222e+01 -9.4327515269e+00 +4.9768262473e+02 5.2905917959e+02 1.7300000000e+02 0.0000e+00 1.0000e+00
       -6  1    1    2    0  503 +7.2069513632e+01 +3.2062386808e+01 -1.0097737277e+02 2.1528455879e+02 1.7300000000e+02 0.0000e+00 1.0000e+00
       21  1    1    2  504  505 -4.1074464848e+00 -3.1455363736e+01 -1.0531376701e+02 1.0998772907e+02 0.0000000000e+00 0.0000e+00 1.0000e+00
       21  1    1    2  505  502 -2.1083033925e+01 +8.8257284554e+00 +1.8912729070e+01 2.9666127538e+01 0.0000000000e+00 0.0000e+00 1.0000e+00
<mgrwt>
<rscale>  4 0.18533885E+03</rscale>
<asrwt>0</asrwt>
<pdfrwt beam="1">  1       21 0.91869370E-01 0.18533885E+03</pdfrwt>
<pdfrwt beam="2">  1       21 0.44130260E-01 0.18533885E+03</pdfrwt>
<totfact> 0.49691597E+03</totfact>
</mgrwt>
</event>
<event>
 6      1 +2.5168241e+02 3.03683600e+02 7.54677100e-03 1.03924000e-01
       21 -1    0    0  504  502 +0.0000000000e+00 +0.0000000000e+00 +9.1286963655e+02 9.1286963655e+02 0.0000000000e+00 0.0000e+00 1.0000e+00
       21 -1    0    0  501  503 -0.0000000000e+00 -0.0000000000e+00 -2.8518885483e+02 2.8518885483e+02 0.0000000000e+00 0.0000e+00 1.0000e+00
        6  1    1    2  501    0 -8.9589133549e+01 -1.7568877504e+02 +6.1107603345e+02 6.6500802791e+02 1.7300000000e+02 0.0000e+00 1.0000e+00
       -6  1    1    2    0  505 +1.0014744488e+02 +2.3720195676e+02 -1.5730391798e+02 3.4780425762e+02 1.7300000000e+02 0.0000e+00 1.0000e+00
       21  1    1    2  504  503 -6.7697253281e+00 -3.4950817902e+01 +7.9667943001e+01 8.7260357522e+01 0.0000000000e+00 0.0000e+00 1.0000e+00
       21  1    1    2  505  502 -3.7885860004e+00 -2.6562363816e+01 +9.4240723246e+01 9.7985848332e+01 0.0000000000e+00 0.0000e+00 1.0000e+00
<mgrwt>
<rscale>  4 0.30368360E+03</rscale>
<asrwt>0</asrwt>
<pdfrwt beam="1">  1       21 0.14044148E+00 0.30368360E+03</pdfrwt>
<pdfrwt beam="2">  1       21 0.43875209E-01 0.30368360E+03</pdfrwt>
<totfact> 0.16251203E+03</totfact>
</mgrwt>
</event>
<event>
 6      1 +2.5168241e+02 2.05691600e+02 7.54677100e-03 1.16820100e-01
       21 -1    0    0  504  502 +0.0000000000e+00 +0.0000000000e+00 +5.1520356644e+02 5.1520356644e+02 0.0000000000e+00 0.0000e+00 -1.0000e+00
       21 -1    0    0  501  503 -0.0000000000e+00 -0.0000000000e+00 -6.3827785026e+02 6.3827785026e+02 0.0000000000e+00 0.0000e+00 -1.0000e+00
        6  1    1    2  501    0 -5.9637472430e+01 +7.1761511755e+01 -2.4633021741e+02 3.1514110918e+02 1.7300000000e+02 0.0000e+00 -1.0000e+00
       -6  1    1    2    0  505 +6.3314716060e+01 -3.7877530016e+01 +5.5802048179e+01 1.9617932901e+02 1.7300000000e+02 0.0000e+00 -1.0000e+00
       21  1    1    2  504  503 -4.5629880332e+01 +1.7454978195e+01 -2.8213859499e+02 2.8633712477e+02 0.0000000000e+00 0.0000e+00 -1.0000e+00
       21  1    1    2  505  502 +4.1952636702e+01 -5.1338959934e+01 +3.4959248040e+02 3.5582385373e+02 0.0000000000e+00 0.0000e+00 -1.0000e+00
<mgrwt>
<rscale>  4 0.20569157E+03</rscale>
<asrwt>0</asrwt>
<pdfrwt beam="1">  1       21 0.79262087E-01 0.20569157E+03</pdfrwt>
<pdfrwt beam="2">  1       21 0.98196592E-01 0.20569157E+03</pdfrwt>
<totfact> 0.11885569E+03</totfact>
</mgrwt>
</event>
<event>
 6      1 +2.5168241e+02 1.92067500e+02 7.54677100e-03 1.07240600e-01
       21 -1    0    0  505  502 +0.0000000000e+00 +0.0000000000e+00 +2.2661552348e+02 2.2661552348e+02 0.0000000000e+00 0.0000e+00 -1.0000e+00
       21 -1    0    0  504  503 -0.0000000000e+00 -0.0000000000e+00 -3.4697093870e+02 3.4697093870e+02 0.0000000000e+00 0.0000e+00 -1.0000e+00
        6  1    1    2  501    0 +9.0743808354e+01 -9.8724724716e+01 -7.7724446347e+01 2.3227376000e+02 1.7300000000e+02 0.0000e+00 -1.0000e+00
       -6  1    1    2    0  502 -6.1798706641e+01 +2.1222748610e+01 +6.0985859700e+01 1.9472483222e+02 1.7300000000e+02 0.0000e+00 -1.0000e+00
       21  1    1    2  504  501 -4.1830651146e+01 +4.6433627344e+01 -3.8793933406e+01 7.3558509995e+01 0.0000000000e+00 0.0000e+00 1.0000e+00
       21  1    1    2  505  503 +1.2885549433e+01 +3.1068348762e+01 -6.4822895164e+01 7.3029359962e+01 0.0000000000e+00 0.0000e+00 1.0000e+00
<mgrwt>
<rscale>  4 0.19206748E+03</rscale>
<asrwt>0</asrwt>
<pdfrwt beam="1">  1       21 0.34863927E-01 0.19206748E+03</pdfrwt>
<pdfrwt beam="2">  1       21 0.53380144E-01 0.19206748E+03</pdfrwt>
<totfact> 0.26357624E+04</totfact>
</mgrwt>
</event>
<event>
 6      1 +2.5168241e+02 1.91746300e+02 7.54677100e-03 1.15942100e-01
       21 -1    0    0  504  502 +0.0000000000e+00 +0.0000000000e+00 +3.1098277205e+02 3.1098277205e+02 0.0000000000e+00 0.0000e+00 -1.0000e+00
       21 -1    0    0  501  503 -0.0000000000e+00 -0.0000000000e+00 -7.0610512132e+02 7.0610512132e+02 0.0000000000e+00 0.0000e+00 -1.0000e+00
        6  1    1    2  501    0 -4.1049517568e+01 +8.1842639008e+01 +2.3988621160e+02 3.0960890647e+02 1.7300000000e+02 0.0000e+00 -1.0000e+00
       -6  1    1    2    0  502 -5.8523227743e+01 -2.4822412344e+01 -3.0620261851e+02 3.5739357006e+02 1.7300000000e+02 0.0000e+00 -1.0000e+00
       21  1    1    2  504  505 +2.5971612246e+01 -3.4225743906e+01 -1.0868993909e+02 1.1687356009e+02 0.0000000000e+00 0.0000e+00 -1.0000e+00
       21  1    1    2  505  503 +7.3601133065e+01 -2.2794482757e+01 -2.2011600327e+02 2.3321185675e+02 0.0000000000e+00 0.0000e+00 -1.0000e+00
<mgrwt>
<rscale>  4 0.19174632E+03</rscale>
<asrwt>0</asrwt>
<pdfrwt beam="1">  1       21 0.47843503E-01 0.19174632E+03</pdfrwt>
<pdfrwt beam="2">  1       21 0.10863156E+00 0.19174632E+03</pdfrwt>
<totfact> 0.28135818E+03</totfact>
</mgrwt>
</event>
<event>
 6      1 +2.5168241e+02 2.69583600e+02 7.54677100e-03 1.17132900e-01
       21 -1    0    0  505  502 +0.0000000000e+00 +0.0000000000e+00 +1.8846949165e+03 1.8846949165e+03 0.0000000000e+00 0.0000e+00 1.0000e+00
       21 -1    0    0  504  503 -0.0000000000e+00 -0.0000000000e+00 -8.6306852769e+01 8.6306852769e+01 0.0000000000e+00 0.0000e+00 1.0000e+00
        6  1    1    2  501    0 -1.9267666459e+02 -8.2631027770e+01 +5.0725763996e+02 5.7549239537e+02 1.7300000000e+02 0.0000e+00 1.0000e+00
       -6  1    1    2    0  502 +1.2635023317e+02 +1.7625046760e+02 +8.9158060861e+02 9.3374171503e+02 1.7300000000e+02 0.0000e+00 1.0000e+00
       21  1    1    2  504  501 +1.8251047142e+01 +5.3661281676e+01 +3.7501096391e+01 6.7962975976e+01 0.0000000000e+00 0.0000e+00 1.0000e+00
       21  1    1    2  505  503 +4.8075384280e+01 -1.4728072151e+02 +3.6204871877e+02 3.9380468288e+02 0.0000000000e+00 0.0000e+00 1.0000e+00
<mgrwt>
<rscale>  4 0.26958361E+03</rscale>
<asrwt>0</asrwt>
<pdfrwt beam="1">  1       21 0.28995303E+00 0.26958361E+03</pdfrwt>
<pdfrwt beam="2">  1       21 0.13277979E-01 0.26958361E+03</pdfrwt>
<totfact> 0.17582588E+03</totfact>
</mgrwt>
</event>
<event>
 6      1 +2.5168241e+02 1.96780500e+02 7.54677100e-03 1.15942100e-01
       21 -1    0    0  504  502 +0.0000000000e+00 +0.0000000000e+00 +3.0879954609e+02 3.0879954609e+02 0.0000000000e+00 0.0000e+00 -1.0000e+00
       21 -1    0    0  501  503 -0.0000000000e+00 -0.0000000000e+00 -9.8919988165e+02 9.8919988165e+02 0.0000000000e+00 0.0000e+00 1.0000e+00
        6  1    1    2  501    0 -1.7071802055e+02 -1.8283113472e+01 -2.3755340850e+02 3.4035207752e+02 1.7300000000e+02 0.0000e+00 1.0000e+00
       -6  1    1    2    0  502 +6.0164668041e+01 -6.8892311407e+01 +2.0934187813e+02 2.8656405879e+02 1.7300000000e+02 0.0000e+00 -1.0000e+00
       21  1    1    2  504  505 -1.9035445709e+00 +2.0660622158e+01 -3.9492650830e+01 4.4611145014e+01 0.0000000000e+00 0.0000e+00 1.0000e+00
       21  1    1    2  505  503 +1.1245689708e+02 +6.6514802721e+01 -6.1269615436e+02 6.2647214643e+02 0.0000000000e+00 0.0000e+00 1.0000e+00
<mgrwt>
<rscale>  4 0.19678049E+03</rscale>
<asrwt>0</asrwt>
<pdfrwt beam="1">  1       21 0.47507622E-01 0.19678049E+03</pdfrwt>
<pdfrwt beam="2">  1       21 0.15218460E+00 0.19678049E+03</pdfrwt>
<totfact> 0.12140632E+03</totfact>
</mgrwt>
</event>
<event>
 6      1 +2.5168241e+02 2.49568800e+02 7.54677100e-03 1.03924000e-01
       21 -1    0    0  501  502 +0.0000000000e+00 +0.0000000000e+00 +2.2818778695e+02 2.2818778695e+02 0.0000000000e+00 0.0000e+00 -1.0000e+00
       21 -1    0    0  502  503 -0.0000000000e+00 -0.0000000000e+00 -5.5768697882e+02 5.5768697882e+02 0.0000000000e+00 0.0000e+00 1.0000e+00
        6  1    1    2  501    0 +1.6545337799e+02 +1.0519403426e+02 -3.5891727619e+02 4.4406217614e+02 1.7300000000e+02 0.0000e+00 1.0000e+00
       -6  1    1    2    0  505 -1.5301917615e+02 -1.2465584578e+01 -2.2283666380e+01 2.3237000851e+02 1.7300000000e+02 0.0000e+00 1.0000e+00
       21  1    1    2  504  503 -1.3504003403e+01 -4.9965833211e+01 +1.7377214024e+01 5.4597712073e+01 0.0000000000e+00 0.0000e+00 -1.0000e+00
       21  1    1    2  505  504 +1.0698015587e+00 -4.2762616471e+01 +3.4324536673e+01 5.4844869046e+01 0.0000000000e+00 0.0000e+00 -1.0000e+00
<mgrwt>
<rscale>  4 0.24956885E+03</rscale>
<asrwt>0</asrwt>
<pdfrwt beam="1">  1       21 0.35105814E-01 0.24956885E+03</pdfrwt>
<pdfrwt beam="2">  1       21 0.85797996E-01 0.24956885E+03</pdfrwt>
<totfact> 0.88445040E+03</totfact>
</mgrwt>
</event>
<event>
 6      1 +2.5168241e+02 1.73456500e+02 7.54677100e-03 1.12068800e-01
       21 -1    0    0  504  502 +0.0000000000e+00 +0.0000000000e+00 +1.1354747316e+03 1.1354747316e+03 0.0000000000e+00 0.0000e+00 -1.0000e+00
       21 -1    0    0  502  503 -0.0000000000e+00 -0.0000000000e+00 -1.0171663996e+02 1.0171663996e+02 0.0000000000e+00 0.0000e+00 -1.0000e+00
        6  1    1    2  501    0 -3.0542917108e+01 -4.8657172216e+01 +3.8559132097e+02 4.2650915231e+02 1.7300000000e+02 0.0000e+00 -1.0000e+00
       -6  1    1    2    0  505 -1.1199981070e+00 -1.8359947925e+01 +6.0985456622e+02 6.3418446372e+02 1.7300000000e+02 0.0000e+00 -1.0000e+00
       21  1    1    2  504  501 +8.4985718807e+01 +7.8930644509e+01 +3.7353155848e+01 1.2185186620e+02 0.0000000000e+00 0.0000e+00 -1.0000e+00
       21  1    1    2  505  503 -5.3322803593e+01 -1.1913524368e+01 +9.5904858229e-01 5.4645889324e+01 0.0000000000e+00 0.0000e+00 -1.0000e+00
<mgrwt>
<rscale>  4 0.17345650E+03</rscale>
<asrwt>0</asrwt>
<pdfrwt beam="1">  1       21 0.17468841E+00 0.17345650E+03</pdfrwt>
<pdfrwt beam="2">  1       21 0.15648715E-01 0.17345650E+03</pdfrwt>
<totfact> 0.73066016E+03</totfact>
</mgrwt>
</event>
<event>
 6      1 +2.5168241e+02 2.27986800e+02 7.54677100e-03 1.07240600e-01
       21 -1    0    0  505  502 +0.0000000000e+00 +0.0000000000e+00 +1.1591021271e+03 1.1591021271e+03 0.0000000000e+00 0.0000e+00 -1.0000e+00
       21 -1    0    0  504  503 -0.0000000000e+00 -0.0000000000e+00 -1.3226595955e+02 1.3226595955e+02 0.0000000000e+00 0.0000e+00 -1.0000e+00
        6  1    1    2  501    0 -1.2972249280e+02 -3.5553809721e+01 +6.9864082824e+02 7.3220216157e+02 1.7300000000e+02 0.0000e+00 -1.0000e+00
       -6  1    1    2    0  502 +1.7943153283e+02 +3.2496598202e+01 +3.5386719518e+02 4.3405379355e+02 1.7300000000e+02 0.0000e+00 -1.0000e+00
       21  1    1    2  504  501 -2.3353611897e+01 +2.4106454920e+01 +3.9436503396e+01 5.1785617285e+01 0.0000000000e+00 0.0000e+00 -1.0000e+00
       21  1    1    2  505  503 -2.6355428129e+01 -2.1049243402e+01 -6.5108359292e+01 7.3326514232e+01 0.0000000000e+00 0.0000e+00 -1.0000e+00
<mgrwt>
<rscale>  4 0.22798678E+03</rscale>
<asrwt>0</asrwt>
<pdfrwt beam="1">  1       21 0.17832340E+00 0.22798678E+03</pdfrwt>
<pdfrwt beam="2">  1       21 0.20348610E-01 0.22798678E+03</pdfrwt>
<totfact> 0.40501492E+03</totfact>
</mgrwt>
</event>
<event>
 6      1 +2.5168241e+02 2.11011900e+02 7.54677100e-03 1.07240600e-01
       21 -1    0    0  505  502 +0.0000000000e+00 +0.0000000000e+00 +2.8461043694e+03 2.8461043694e+03 0.0000000000e+00 0.0000e+00 1.0000e+00
       21 -1    0    0  504  503 -0.0000000000e+00 -0.0000000000e+00 -6.7713334740e+01 6.7713334740e+01 0.0000000000e+00 0.0000e+00 1.0000e+00
        6  1    1    2  501    0 +8.6739275493e+01 +1.1130318718e+02 +9.0684361353e+02 9.3391993275e+02 1.7300000000e+02 0.0000e+00 1.0000e+00
       -6  1    1    2    0  502 -7.6257411958e+01 -8.2310096032e+01 +1.8138406436e+03 1.8255237674e+03 1.7300000000e+02 0.0000e+00 1.0000e+00
       21  1    1    2  504  501 +6.0107813820e+01 +7.2507449369e+00 +4.1455605092e+01 7.3376357077e+01 0.0000000000e+00 0.0000e+00 -1.0000e+00
       21  1    1    2  505  503 -7.0589677355e+01 -3.6243836083e+01 +1.6251172403e+01 8.0997646926e+01 0.0000000000e+00 0.0000e+00 1.0000e+00
<mgrwt>
<rscale>  4 0.21101194E+03</rscale>
<asrwt>0</asrwt>
<pdfrwt beam="1">  1       21 0.43786212E+00 0.21101194E+03</pdfrwt>
<pdfrwt beam="2">  1       21 0.10417438E-01 0.21101194E+03</pdfrwt>
<totfact> 0.36633515E+02</totfact>
</mgrwt>
</event>
<event>
 6      1 +2.5168241e+02 2.05067100e+02 7.54677100e-03 1.11471900e-01
       21 -1    0    0  503  502 +0.0000000000e+00 +0.0000000000e+00 +1.0508978981e+03 1.0508978981e+03 0.0000000000e+00 0.0000e+00 -1.0000e+00
       21 -1    0    0  501  503 -0.0000000000e+00 -0.0000000000e+00 -2.9556823792e+02 2.9556823792e+02 0.0000000000e+00 0.0000e+00 -1.0000e+00
        6  1    1    2  501    0 +9.6574086328e+00 +2.4901220170e+01 +7.4626216905e+02 7.6651781536e+02 1.7300000000e+02 0.0000e+00 -1.0000e+00
       -6  1    1    2    0  504 -7.8903311897e+01 -1.1607391714e+01 -2.1704114973e+02 2.8878421849e+02 1.7300000000e+02 0.0000e+00 -1.0000e+00
       21  1    1    2  504  505 -3.5690467173e+01 -3.1706937992e+01 +7.9734932578e+00 4.8401611116e+01 0.0000000000e+00 0.0000e+00 -1.0000e+00
       21  1    1    2  505  502 +1.0493637044e+02 +1.8413109536e+01 +2.1813514760e+02 2.4276249106e+02 0.0000000000e+00 0.0000e+00 -1.0000e+00
<mgrwt>
<rscale>  4 0.20506707E+03</rscale>
<asrwt>0</asrwt>
<pdfrwt beam="1">  1       21 0.16167660E+00 0.20506707E+03</pdfrwt>
<pdfrwt beam="2">  1       21 0.45472037E-01 0.20506707E+03</pdfrwt>
<totfact> 0.11205104E+03</totfact>
</mgrwt>
</event>
<event>
 6      1 +2.5168241e+02 2.03791000e+02 7.54677100e-03 1.16820100e-01
       21 -1    0    0  505  502 +0.0000000000e+00 +0.0000000000e+00 +2.8422631440e+02 2.8422631440e+02 0.0000000000e+00 0.0000e+00 -1.0000e+00
       21 -1    0    0  504  503 -0.0000000000e+00 -0.0000000000e+00 -4.4785674596e+02 4.4785674596e+02 0.0000000000e+00 0.0000e+00 -1.0000e+00
        6  1    1    2  501    0 +2.4214118050e+00 +8.3949654888e+01 +1.0916418850e+02 2.2113169796e+02 1.7300000000e+02 0.0000e+00 -1.0000e+00
       -6  1    1    2    0  503 +2.9246069926e+01 -1.1786518456e+02 -2.8985327444e+02 3.5873591267e+02 1.7300000000e+02 0.0000e+00 -1.0000e+00
       21  1    1    2  504  502 +2.3107829792e+01 +1.7228573622e+01 -5.3846909369e+01 6.1076060739e+01 0.0000000000e+00 0.0000e+00 -1.0000e+00
       21  1    1    2  505  501 -5.4775311523e+01 +1.6686956051e+01 +7.0905563755e+01 9.1139388993e+01 0.0000000000e+00 0.0000e+00 -1.0000e+00
<mgrwt>
<rscale>  4 0.20379102E+03</rscale>
<asrwt>0</asrwt>
<pdfrwt beam="1">  1       21 0.43727126E-01 0.20379102E+03</pdfrwt>
<pdfrwt beam="2">  1       21 0.68901037E-01 0.20379102E+03</pdfrwt>
<totfact> 0.95679354E+03</totfact>
</mgrwt>
</event>
<event>
 6      1 +2.5168241e+02 2.51119400e+02 7.54677100e-03 1.04003000e-01
       21 -1    0    0  504  502 +0.0000000000e+00 +0.0000000000e+00 +2.9858703607e+02 2.9858703607e+02 0.0000000000e+00 0.0000e+00 1.0000e+00
       21 -1    0    0  505  503 -0.0000000000e+00 -0.0000000000e+00 -9.3238747400e+02 9.3238747400e+02 0.0000000000e+00 0.0000e+00 -1.0000e+00
        6  1    1    2  501    0 -2.1950448949e+02 -1.5936564069e+01 +1.6169903537e+02 3.2328280656e+02 1.7300000000e+02 0.0000e+00 1.0000e+00
       -6  1    1    2    0  503 +1.9854375568e+02 -3.0580476923e+01 -7.1907815974e+02 7.6639232009e+02 1.7300000000e+02 0.0000e+00 -1.0000e+00
       21  1    1    2  504  501 -2.4720004454e+01 +7.4981292696e+00 -7.7002424463e+01 8.1219910957e+01 0.0000000000e+00 0.0000e+00 1.0000e+00
       21  1    1    2  505  502 +4.5680738264e+01 +3.9018911722e+01 +5.8111090946e-01 6.0079472453e+01 0.0000000000e+00 0.0000e+00 1.0000e+00
<mgrwt>
<rscale>  4 0.25111941E+03</rscale>
<asrwt>0</asrwt>
<pdfrwt beam="1">  1       21 0.45936467E-01 0.25111941E+03</pdfrwt>
<pdfrwt beam="2">  1       21 0.14344423E+00 0.25111941E+03</pdfrwt>
<totfact> 0.14493172E+03</totfact>
</mgrwt>
</event>
<event>
 6      1 +2.5168241e+02 2.48851300e+02 7.54677100e-03 1.17132900e-01
       21 -1    0    0  505  502 +0.0000000000e+00 +0.0000000000e+00 +7.9206384327e+02 7.9206384327e+02 0.0000000000e+00 0.0000e+00 1.0000e+00
       21 -1    0    0  504  503 -0.0000000000e+00 -0.0000000000e+00 -5.0065353735e+02 5.0065353735e+02 0.0000000000e+00 0.0000e+00 -1.0000e+00
        6  1    1    2  501    0 +1.0860951544e+02 -1.5069101527e+02 -3.0789268218e+02 3.9903723218e+02 1.7300000000e+02 0.0000e+00 -1.0000e+00
       -6  1    1    2    0  502 -1.1334900675e+02 +9.2378425547e+01 +5.0159492659e+02 5.5037100325e+02 1.7300000000e+02 0.0000e+00 1.0000e+00
       21  1    1    2  504  501 +3.5478827583e+01 +3.8935281568e+01 -1.1554330262e+02 1.2698408616e+02 0.0000000000e+00 0.0000e+00 -1.0000e+00
       21  1    1    2  505  503 -3.0739336281e+01 +1.9377308157e+01 +2.1325136413e+02 2.1632505904e+02 0.0000000000e+00 0.0000e+00 1.0000e+00
<mgrwt>
<rscale>  4 0.24885126E+03</rscale>
<asrwt>0</asrwt>
<pdfrwt beam="1">  1       21 0.12185598E+00 0.24885126E+03</pdfrwt>
<pdfrwt beam="2">  1       21 0.77023621E-01 0.24885126E+03</pdfrwt>
<totfact> 0.72189188E+02</totfact>
</mgrwt>
</event>
<event>
 6      1 +2.5168241e+02 2.23005600e+02 7.54677100e-03 1.16820100e-01
       21 -1    0    0  501  502 +0.0000000000e+00 +0.0000000000e+00 +8.8598566489e+02 8.8598566489e+02 0.0000000000e+00 0.0000e+00 -1.0000e+00
       21 -1    0    0  504  503 -0.0000000000e+00 -0.0000000000e+00 -5.4920647271e+02 5.4920647271e+02 0.0000000000e+00 0.0000e+00 1.0000e+00
        6  1    1    2  501    0 -1.2769543113e+02 -1.2424614671e+02 -3.4721072385e+02 4.2688114840e+02 1.7300000000e+02 0.0000e+00 -1.0000e+00
       -6  1    1    2    0  503 +1.4029377168e+02 -4.7042728236e+01 -1.5092232442e+01 2.2814937242e+02 1.7300000000e+02 0.0000e+00 1.0000e+00
       21  1    1    2  504  505 +1.7579707418e+00 +4.5635688647e+01 -2.0133808120e+01 4.9910687922e+01 0.0000000000e+00 0.0000e+00 1.0000e+00
       21  1    1    2  505  502 -1.4356311301e+01 +1.2565318630e+02 +7.1921595658e+02 7.3025092886e+02 0.0000000000e+00 0.0000e+00 -1.0000e+00
<mgrwt>
<rscale>  4 0.22300560E+03</rscale>
<asrwt>0</asrwt>
<pdfrwt beam="1">  1       21 0.13630549E+00 0.22300560E+03</pdfrwt>
<pdfrwt beam="2">  1       21 0.84493303E-01 0.22300560E+03</pdfrwt>
<totfact> 0.45060387E+02</totfact>
</mgrwt>
</event>
<event>
 6      1 +2.5168241e+02 2.20971200e+02 7.54677100e-03 1.16820100e-01
       21 -1    0    0  504  502 +0.0000000000e+00 +0.0000000000e+00 +6.4463643226e+01 6.4463643226e+01 0.0000000000e+00 0.0000e+00 1.0000e+00
       21 -1    0    0  501  503 -0.0000000000e+00 -0.0000000000e+00 -1.8083639334e+03 1.8083639334e+03 0.0000000000e+00 0.0000e+00 1.0000e+00
        6  1    1    2  501    0 -1.3494970346e+02 -2.4266294901e+01 -7.8523593269e+02 8.1567441147e+02 1.7300000000e+02 0.0000e+00 1.0000e+00
       -6  1    1    2    0  505 +1.3692986009e+02 +2.0151053722e+01 -6.8270127872e+02 7.1775057472e+02 1.7300000000e+02 0.0000e+00 1.0000e+00
       21  1    1    2  504  503 -5.8102859397e+01 -2.3254972002e+01 -2.6945023964e+02 2.7662278943e+02 0.0000000000e+00 0.0000e+00 -1.0000e+00
       21  1    1    2  505  502 +5.6122702775e+01 +2.7370213182e+01 -6.5128390899e+00 6.2779800967e+01 0.0000000000e+00 0.0000e+00 1.0000e+00
<mgrwt>
<rscale>  4 0.22097116E+03</rscale>
<asrwt>0</asrwt>
<pdfrwt beam="1">  1       21 0.99174835E-02 0.22097116E+03</pdfrwt>
<pdfrwt beam="2">  1       21 0.27820984E+00 0.22097116E+03</pdfrwt>
<totfact> 0.36392602E+03</totfact>
</mgrwt>
</event>
<event>
 6      1 +2.5168241e+02 1.73770600e+02 7.54677100e-03 1.17132900e-01
       21 -1    0    0  505  502 +0.0000000000e+00 +0.0000000000e+00 +1.7677721609e+03 1.7677721609e+03 0.0000000000e+00 0.0000e+00 -1.0000e+00
       21 -1    0    0  504  503 -0.0000000000e+00 -0.0000000000e+00 -3.3760133770e+01 3.3760133770e+01 0.0000000000e+00 0.0000e+00 -1.0000e+00
        6  1    1    2  501    0 +4.5969771952e+00 -3.8449258342e+00 +8.3747599331e+02 8.5517890235e+02 1.7300000000e+02 0.0000e+00 1.0000e+00
       -6  1    1    2    0  502 -2.6199722025e+01 -1.4121510854e+01 +7.0737501692e+02 7.2883074652e+02 1.7300000000e+02 0.0000e+00 -1.0000e+00
       21  1    1    2  504  501 +2.2032350101e+01 -1.9861176274e+01 +5.7047180503e+00 3.0206532108e+01 0.0000000000e+00 0.0000e+00 -1.0000e+00
       21  1    1    2  505  503 -4.2960527029e-01 +3.7827612962e+01 +1.8345629884e+02 1.8731611369e+02 0.0000000000e+00 0.0000e+00 -1.0000e+00
<mgrwt>
<rscale>  4 0.17377059E+03</rscale>
<asrwt>0</asrwt>
<pdfrwt beam="1">  1       21 0.27196487E+00 0.17377059E+03</pdfrwt>
<pdfrwt beam="2">  1       21 0.51938681E-02 0.17377059E+03</pdfrwt>
<totfact> 0.12730953E+04</totfact>
</mgrwt>
</event>
<event>
 6      1 +2.5168241e+02 1.73455100e+02 7.54677100e-03 1.04003000e-01
       21 -1    0    0  504  502 +0.0000000000e+00 +0.0000000000e+00 +5.4034747375e+02 5.4034747375e+02 0.0000000000e+00 0.0000e+00 1.0000e+00
       21 -1    0    0  505  503 -0.0000000000e+00 -0.0000000000e+00 -5.1974599812e+02 5.1974599812e+02 0.0000000000e+00 0.0000e+00 -1.0000e+00
        6  1    1    2  501    0 +9.0094214421e+01 +5.3551533859e+01 +3.8992661995e+02 4.3926814498e+02 1.7300000000e+02 0.0000e+00 1.0000e+00
       -6  1    1    2    0  503 -8.9907163662e+00 -4.1672305835e+01 -3.2339616925e+02 3.6923095258e+02 1.7300000000e+02 0.0000e+00 -1.0000e+00
       21  1    1    2  504  501 +2.0024599288e+00 +5.3598392979e+01 -1.1386118951e+02 1.2586170209e+02 0.0000000000e+00 0.0000e+00 1.0000e+00
       21  1    1    2  505  502 -8.3105957983e+01 -6.5477621002e+01 +6.7932214439e+01 1.2573267222e+02 0.0000000000e+00 0.0000e+00 1.0000e+00
<mgrwt>
<rscale>  4 0.17345509E+03</rscale>
<asrwt>0</asrwt>
<pdfrwt beam="1">  1       21 0.83130381E-01 0.17345509E+03</pdfrwt>
<pdfrwt beam="2">  1       21 0.79960922E-01 0.17345509E+03</pdfrwt>
<totfact> 0.17681402E+03</totfact>
</mgrwt>
</event>
<event>
 6      1 +2.5168241e+02 3.01221500e+02 7.54677100e-03 1.07240600e-01
       21 -1    0    0  505  502 +0.0000000000e+00 +0.0000000000e+00 +1.5133456716e+03 1.5133456716e+03 0.0000000000e+00 0.0000e+00 -1.0000e+00
       21 -1    0    0  504  503 -0.0000000000e+00 -0.0000000000e+00 -2.5540361022e+02 2.5540361022e+02 0.0000000000e+00 0.0000e+00 -1.0000e+00
        6  1    1    2  501    0 +6.4901414420e+01 -2.6184265884e+02 +6.9933752890e+02 7.6926962172e+02 1.7300000000e+02 0.0000e+00 -1.0000e+00
       -6  1    1    2    0  502 -4.3427966876e+01 +3.4908260027e+01 +4.2702175766e+02 4.6409175434e+02 1.7300000000e+02 0.0000e+00 1.0000e+00
       21  1    1    2  504  501 +3.8810228325e+01 -9.7475560705e+00 +2.5750742517e+02 2.6059800976e+02 0.0000000000e+00 0.0000e+00 -1.0000e+00
       21  1    1    2  505  503 -6.0283675870e+01 +2.3668195489e+02 -1.2592465039e+02 2.7478989596e+02 0.0000000000e+00 0.0000e+00 -1.0000e+00
<mgrwt>
<rscale>  4 0.26421767E+03</rscale>
<asrwt>0</asrwt>
<pdfrwt beam="1">  1       21 0.23282241E+00 0.30122154E+03</pdfrwt>
<pdfrwt beam="2">  1       21 0.39292864E-01 0.30122154E+03</pdfrwt>
<totfact> 0.46996610E+02</totfact>
</mgrwt>
</event>
<event>
 6      1 +2.5168241e+02 1.82279800e+02 7.54677100e-03 1.11910500e-01
       21 -1    0    0  501  502 +0.0000000000e+00 +0.0000000000e+00 +1.5937149166e+02 1.5937149166e+02 0.0000000000e+00 0.0000e+00 -1.0000e+00
       21 -1    0    0  504  503 -0.0000000000e+00 -0.0000000000e+00 -4.8711477829e+02 4.8711477829e+02 0.0000000000e+00 0.0000e+00 -1.0000e+00
        6  1    1    2  501    0 -1.9525275506e+01 +1.4960902322e+01 -1.6403086227e+02 2.3966682866e+02 1.7300000000e+02 0.0000e+00 -1.0000e+00
       -6  1    1    2    0  503 +7.0357760236e+01 +2.0084766474e+01 +4.0014654738e+01 1.9205151617e+02 1.7300000000e+02 0.0000e+00 -1.0000e+00
       21  1    1    2  504  505 -2.2206467373e+01 -2.8363797389e+00 -9.9438270612e+01 1.0192714018e+02 0.0000000000e+00 0.0000e+00 -1.0000e+00
       21  1    1    2  505  502 -2.8626017357e+01 -3.2209289057e+01 -1.0428880848e+02 1.1284078494e+02 0.0000000000e+00 0.0000e+00 -1.0000e+00
<mgrwt>
<rscale>  4 0.18227977E+03</rscale>
<asrwt>0</asrwt>
<pdfrwt beam="1">  1       21 0.24518691E-01 0.18227977E+03</pdfrwt>
<pdfrwt beam="2">  1       21 0.74940735E-01 0.18227977E+03</pdfrwt>
<totfact> 0.25184375E+04</totfact>
</mgrwt>
</event>
<event>
 6      1 +2.5168241e+02 1.99417500e+02 7.54677100e-03 1.03924000e-01
       21 -1    0    0  504  502 +0.0000000000e+00 +0.0000000000e+00 +8.2781889628e+02 8.2781889628e+02 0.0000000000e+00 0.0000e+00 -1.0000e+00
       21 -1    0    0  501  503 -0.0000000000e+00 -0.0000000000e+00 -4.2305005737e+02 4.2305005737e+02 0.0000000000e+00 0.0000e+00 1.0000e+00
        6  1    1    2  501    0 -7.3292844689e+01 -2.1092304040e+01 +3.4227616506e+02 3.9102263303e+02 1.7300000000e+02 0.0000e+00 -1.0000e+00
       -6  1    1    2    0  505 +8.7275452295e+01 +5.0686524448e+01 -3.6971097827e+02 4.2047750925e+02 1.7300000000e+02 0.0000e+00 1.0000e+00
       21  1    1    2  504  503 +2.4661472398e+01 -6.9703583800e+00 +7.2654162488e+01 7.7041556602e+01 0.0000000000e+00 0.0000e+00 -1.0000e+00
       21  1    1    2  505  502 -3.8644080004e+01 -2.2623862028e+01 +3.5954948963e+02 3.6232725476e+02 0.0000000000e+00 0.0000e+00 1.0000e+00
<mgrwt>
<rscale>  4 0.19941751E+03</rscale>
<asrwt>0</asrwt>
<pdfrwt beam="1">  1       21 0.12735675E+00 0.19941751E+03</pdfrwt>
<pdfrwt beam="2">  1       21 0.65084624E-01 0.19941751E+03</pdfrwt>
<totfact> 0.98248698E+02</totfact>
</mgrwt>
</event>
<event>
 6      1 +2.5168241e+02 2.96001900e+02 7.54677100e-03 1.17392200e-01
       21 -1    0    0  504  502 +0.0000000000e+00 +0.0000000000e+00 +1.0539496494e+02 1.0539496494e+02 0.0000000000e+00 0.0000e+00 -1.0000e+00
       21 -1    0    0  501  503 -0.0000000000e+00 -0.0000000000e+00 -1.7628511894e+03 1.7628511894e+03 0.0000000000e+00 0.0000e+00 1.0000e+00
        6  1    1    2  501    0 +6.6354915601e+01 -2.0067459006e+02 -2.7435810072e+02 3.8713645314e+02 1.7300000000e+02 0.0000e+00 -1.0000e+00
       -6  1    1    2    0  502 -1.0582867058e+02 +2.8054454874e+02 -6.3896152075e+02 7.2670886628e+02 1.7300000000e+02 0.0000e+00 1.0000e+00
       21  1    1    2  504  505 +5.7953654641e+01 -4.9050551740e+01 -6.3447116260e+02 6.3899783950e+02 0.0000000000e+00 0.0000e+00 1.0000e+00
       21  1    1    2  505  503 -1.8479899661e+01 -3.0819406939e+01 -1.0966544040e+02 1.1540299542e+02 0.0000000000e+00 0.0000e+00 -1.0000e+00
<mgrwt>
<rscale>  4 0.29600193E+03</rscale>
<asrwt>0</asrwt>
<pdfrwt beam="1">  1       21 0.16214610E-01 0.29600193E+03</pdfrwt>
<pdfrwt beam="2">  1       21 0.27120787E+00 0.29600193E+03</pdfrwt>
<totfact> 0.15373772E+03</totfact>
</mgrwt>
</event>
<event>
 6      1 +2.5168241e+02 2.74880000e+02 7.54677100e-03 1.17132900e-01
       21 -1    0    0  503  502 +0.0000000000e+00 +0.0000000000e+00 +2.6811011321e+02 2.6811011321e+02 0.0000000000e+00 0.0000e+00 -1.0000e+00
       21 -1    0    0  504  503 -0.0000000000e+00 -0.0000000000e+00 -1.8088621943e+03 1.8088621943e+03 0.0000000000e+00 0.0000e+00 1.0000e+00
        6  1    1    2  501    0 +2.8036644295e+01 -1.8279510609e+02 -3.8319294251e+02 4.5931028230e+02 1.7300000000e+02 0.0000e+00 1.0000e+00
       -6  1    1    2    0  505 -6.5545861072e+01 +2.3534590531e+02 -5.3728818619e+02 6.1505410336e+02 1.7300000000e+02 0.0000e+00 1.0000e+00
       21  1    1    2  504  501 +4.2024678622e+01 -1.0145816997e+01 -8.0847646890e+02 8.0963152853e+02 0.0000000000e+00 0.0000e+00 1.0000e+00
       21  1    1    2  505  502 -4.5154618452e+00 -4.2404982216e+01 +1.8820551654e+02 1.9297639329e+02 0.0000000000e+00 0.0000e+00 -1.0000e+00
<mgrwt>
<rscale>  4 0.27488002E+03</rscale>
<asrwt>0</asrwt>
<pdfrwt beam="1">  1       21 0.41247710E-01 0.27488002E+03</pdfrwt>
<pdfrwt beam="2">  1       21 0.27828649E+00 0.27488002E+03</pdfrwt>
<totfact> 0.23280227E+02</totfact>
</mgrwt>
</event>
<event>
 6      1 +2.5168241e+02 1.73210500e+02 7.54677100e-03 1.15942100e-01
       21 -1    0    0  504  502 +0.0000000000e+00 +0.0000000000e+00 +2.7675259204e+02 2.7675259204e+02 0.0000000000e+00 0.0000e+00 1.0000e+00
       21 -1    0    0  501  503 -0.0000000000e+00 -0.0000000000e+00 -3.6100148640e+02 3.6100148640e+02 0.0000000000e+00 0.0000e+00 1.0000e+00
        6  1    1    2  501    0 -1.1213634757e+01 +1.0625229960e+01 +1.8557541736e+02 2.5417686096e+02 1.7300000000e+02 0.0000e+00 1.0000e+00
       -6  1    1    2    0  502 -7.1037468437e+01 +4.9128068780e+00 -1.8097890155e+02 2.6029371948e+02 1.7300000000e+02 0.0000e+00 1.0000e+00
       21  1    1    2  504  505 +4.6496541524e+01 -1.4540658795e+01 -4.1848965581e+01 6.4223788833e+01 0.0000000000e+00 0.0000e+00 1.0000e+00
       21  1    1    2  505  503 +3.5754561670e+01 -9.9737804356e-01 -4.6996444590e+01 5.9059709170e+01 0.0000000000e+00 0.0000e+00 1.0000e+00
<mgrwt>
<rscale>  4 0.17321046E+03</rscale>
<asrwt>0</asrwt>
<pdfrwt beam="1">  1       21 0.42577322E-01 0.17321046E+03</pdfrwt>
<pdfrwt beam="2">  1       21 0.55538690E-01 0.17321046E+03</pdfrwt>
<totfact> 0.16415462E+04</totfact>
</mgrwt>
</event>
<event>
 6      1 +2.5168241e+02 4.64042400e+02 7.54677100e-03 9.87464100e-02
       21 -1    0    0  503  502 +0.0000000000e+00 +0.0000000000e+00 +2.1534478832e+03 2.1534478832e+03 0.0000000000e+00 0.0000e+00 1.0000e+00
       21 -1    0    0  505  503 -0.0000000000e+00 -0.0000000000e+00 -4.0440004847e+02 4.0440004847e+02 0.0000000000e+00 0.0000e+00 1.0000e+00
        6  1    1    2  501    0 -1.9862229683e+01 +5.9924591387e+01 +1.1487541812e+03 1.1634219500e+03 1.7300000000e+02 0.0000e+00 1.0000e+00
       -6  1    1    2    0  504 +3.1686277243e+02 +2.4074379722e+02 +6.0489830347e+02 7.4443975578e+02 1.7300000000e+02 0.0000e+00 -1.0000e+00
       21  1    1    2  504  502 +7.8263998427e+01 -7.3793365848e+01 +1.5037730989e+02 1.8488929018e+02 0.0000000000e+00 0.0000e+00 -1.0000e+00
       21  1    1    2  505  501 -3.7526454118e+02 -2.2687502276e+02 -1.5498195979e+02 4.6509693579e+02 0.0000000000e+00 0.0000e+00 1.0000e+00
<mgrwt>
<rscale>  4 0.36401827E+03</rscale>
<asrwt>0</asrwt>
<pdfrwt beam="1">  1       21 0.33129967E+00 0.46404238E+03</pdfrwt>
<pdfrwt beam="2">  1       21 0.62215393E-01 0.46404238E+03</pdfrwt>
<totfact> 0.40154687E+01</totfact>
</mgrwt>
</event>
<event>
 6      1 +2.5168241e+02 1.81324800e+02 7.54677100e-03 1.16584500e-01
       21 -1    0    0  505  502 +0.0000000000e+00 +0.0000000000e+00 +2.1915845951e+02 2.1915845951e+02 0.0000000000e+00 0.0000e+00 -1.0000e+00
       21 -1    0    0  501  503 -0.0000000000e+00 -0.0000000000e+00 -7.5841170808e+02 7.5841170808e+02 0.0000000000e+00 0.0000e+00 -1.0000e+00
        6  1    1    2  501    0 +8.0298227290e+01 +2.8316632418e+01 -4.2307336451e+02 4.6494054322e+02 1.7300000000e+02 0.0000e+00 -1.0000e+00
       -6  1    1    2    0  502 +9.0242258619e+00 +7.9131299322e+01 -1.2778352120e+02 2.2934870280e+02 1.7300000000e+02 0.0000e+00 -1.0000e+00
       21  1    1    2  504  503 -4.3596149079e+01 -1.0284847317e+02 -1.0786084037e+02 1.5528165871e+02 0.0000000000e+00 0.0000e+00 -1.0000e+00
       21  1    1    2  505  504 -4.5726304072e+01 -4.5994585676e+00 +1.1946447751e+02 1.2799926285e+02 0.0000000000e+00 0.0000e+00 -1.0000e+00
<mgrwt>
<rscale>  4 0.18132480E+03</rscale>
<asrwt>0</asrwt>
<pdfrwt beam="1">  1       21 0.33716686E-01 0.18132480E+03</pdfrwt>
<pdfrwt beam="2">  1       21 0.11667873E+00 0.18132480E+03</pdfrwt>
<totfact> 0.48399109E+03</totfact>
</mgrwt>
</event>
<event>
 6      1 +2.5168241e+02 1.93357800e+02 7.54677100e-03 1.15942100e-01
       21 -1    0    0  504  502 +0.0000000000e+00 +0.0000000000e+00 +1.9279020057e+03 1.9279020057e+03 0.0000000000e+00 0.0000e+00 -1.0000e+00
       21 -1    0    0  501  503 -0.0000000000e+00 -0.0000000000e+00 -7.8166310101e+01 7.8166310101e+01 0.0000000000e+00 0.0000e+00 -1.0000e+00
        6  1    1    2  501    0 -9.2217593354e+01 +1.9081639453e+01 +5.7170541544e+02 6.0468526982e+02 1.7300000000e+02 0.0000e+00 1.0000e+00
       -6  1    1    2    0  502 +8.1139851709e+01 +3.3904283002e+01 +1.3007740148e+03 1.3151711727e+03 1.7300000000e+02 0.0000e+00 1.0000e+00
       21  1    1    2  504  505 -2.2898059347e+01 -2.8575777505e+01 +3.5654135911e+00 3.6791416879e+01 0.0000000000e+00 0.0000e+00 -1.0000e+00
       21  1    1    2  505  503 +3.3975800992e+01 -2.4410144950e+01 -2.6309148235e+01 4.9420456396e+01 0.0000000000e+00 0.0000e+00 1.0000e+00
<mgrwt>
<rscale>  4 0.19335779E+03</rscale>
<asrwt>0</asrwt>
<pdfrwt beam="1">  1       21 0.29660027E+00 0.19335779E+03</pdfrwt>
<pdfrwt beam="2">  1       21 0.12025588E-01 0.19335779E+03</pdfrwt>
<totfact> 0.20855833E+03</totfact>
</mgrwt>
</event>
<event>
 6      1 +2.5168241e+02 1.96130000e+02 7.54677100e-03 1.17132900e-01
       21 -1    0    0  503  502 +0.0000000000e+00 +0.0000000000e+00 +4.4195154665e+02 4.4195154665e+02 0.0000000000e+00 0.0000e+00 -1.0000e+00
       21 -1    0    0  504  503 -0.0000000000e+00 -0.0000000000e+00 -3.0095662931e+02 3.0095662931e+02 0.0000000000e+00 0.0000e+00 -1.0000e+00
        6  1    1    2  501    0 +5.8740888116e+01 +3.8948500956e+01 -6.8376069228e+01 1.9892653042e+02 1.7300000000e+02 0.0000e+00 -1.0000e+00
       -6  1    1    2    0  505 -1.5319735390e+02 +2.5348349573e+01 +2.0702463167e+01 2.3338714628e+02 1.7300000000e+02 0.0000e+00 -1.0000e+00
       21  1    1    2  504  501 +1.1573845769e+02 -7.5567292635e+01 +1.9349563918e+01 1.3957152979e+02 0.0000000000e+00 0.0000e+00 -1.0000e+00
       21  1    1    2  505  502 -2.1281991904e+01 +1.1270442106e+01 +1.6931895948e+02 1.7102296946e+02 0.0000000000e+00 0.0000e+00 -1.0000e+00
<mgrwt>
<rscale>  4 0.19613001E+03</rscale>
<asrwt>0</asrwt>
<pdfrwt beam="1">  1       21 0.67992545E-01 0.19613001E+03</pdfrwt>
<pdfrwt beam="2">  1       21 0.46301020E-01 0.19613001E+03</pdfrwt>
<totfact> 0.88057867E+03</totfact>
</mgrwt>
</event>
<event>
 6      1 +2.5168241e+02 1.73204200e+02 7.54677100e-03 1.15942100e-01
       21 -1    0    0  504  502 +0.0000000000e+00 +0.0000000000e+00 +2.3415939784e+02 2.3415939784e+02 0.0000000000e+00 0.0000e+00 1.0000e+00
       21 -1    0    0  501  503 -0.0000000000e+00 -0.0000000000e+00 -2.2878545474e+02 2.2878545474e+02 0.0000000000e+00 0.0000e+00 1.0000e+00
        6  1    1    2  501    0 +2.8844790961e+01 -4.0409210354e+01 -5.5416530478e+01 1.8832131610e+02 1.7300000000e+02 0.0000e+00 1.0000e+00
       -6  1    1    2    0  502 +1.1088520523e+00 -1.1318451941e+01 +1.0151482714e+02 2.0090693626e+02 1.7300000000e+02 0.0000e+00 1.0000e+00
       21  1    1    2  504  505 -1.2079608933e+01 +2.5972301372e+01 -1.1527693277e+01 3.0876610935e+01 0.0000000000e+00 0.0000e+00 1.0000e+00
       21  1    1    2  505  503 -1.7874034080e+01 +2.5755360923e+01 -2.9196660283e+01 4.2839989288e+01 0.0000000000e+00 0.0000e+00 1.0000e+00
<mgrwt>
<rscale>  4 0.17320422E+03</rscale>
<asrwt>0</asrwt>
<pdfrwt beam="1">  1       21 0.36024523E-01 0.17320422E+03</pdfrwt>
<pdfrwt beam="2">  1       21 0.35197762E-01 0.17320422E+03</pdfrwt>
<totfact> 0.58338303E+04</totfact>
</mgrwt>
</event>
<event>
 6      1 +2.5168241e+02 1.74170100e+02 7.54677100e-03 1.06249800e-01
       21 -1    0    0  505  502 +0.0000000000e+00 +0.0000000000e+00 +1.2386845834e+03 1.2386845834e+03 0.0000000000e+00 0.0000e+00 -1.0000e+00
       21 -1    0    0  504  503 -0.0000000000e+00 -0.0000000000e+00 -6.4522749535e+02 6.4522749535e+02 0.0000000000e+00 0.0000e+00 1.0000e+00
        6  1    1    2  501    0 -9.6885852303e+00 +2.2942031878e+01 -4.8955737354e+02 5.1982268851e+02 1.7300000000e+02 0.0000e+00 1.0000e+00
       -6  1    1    2    0  502 +6.3544430772e+01 +7.1894263550e+01 -6.6867953110e+01 2.0882289857e+02 1.7300000000e+02 0.0000e+00 1.0000e+00
       21  1    1    2  504  501 -1.7103475159e+01 -5.2808586053e+01 +5.5352521100e+02 5.5630156825e+02 0.0000000000e+00 0.0000e+00 -1.0000e+00
       21  1    1    2  505  503 -3.6752370383e+01 -4.2027709375e+01 +5.9635720369e+02 5.9896492341e+02 0.0000000000e+00 0.0000e+00 -1.0000e+00
<mgrwt>
<rscale>  4 0.17417010E+03</rscale>
<asrwt>0</asrwt>
<pdfrwt beam="1">  1       21 0.19056686E+00 0.17417010E+03</pdfrwt>
<pdfrwt beam="2">  1       21 0.99265769E-01 0.17417010E+03</pdfrwt>
<totfact> 0.13272838E+02</totfact>
</mgrwt>
</event>
<event>
 6      1 +2.5168241e+02 1.90324500e+02 7.54677100e-03 1.16820100e-01
       21 -1    0    0  505  502 +0.0000000000e+00 +0.0000000000e+00 +7.3655529491e+02 7.3655529491e+02 0.0000000000e+00 0.0000e+00 -1.0000e+00
       21 -1    0    0  504  503 -0.0000000000e+00 -0.0000000000e+00 -1.2518854059e+02 1.2518854059e+02 0.0000000000e+00 0.0000e+00 -1.0000e+00
        6  1    1    2  501    0 +5.2917835225e+01 +1.6019473380e+01 +2.6857096404e+02 3.2421641467e+02 1.7300000000e+02 0.0000e+00 -1.0000e+00
       -6  1    1    2    0  503 -1.0221241072e+02 -4.7425752690e+01 +8.5441179950e+01 2.2344076207e+02 1.7300000000e+02 0.0000e+00 -1.0000e+00
       21  1    1    2  504  502 +1.7477151771e+01 +7.3019678404e+01 +3.0129941910e+01 8.0902025115e+01 0.0000000000e+00 0.0000e+00 -1.0000e+00
       21  1    1    2  505  501 +3.1817423723e+01 -4.1613399094e+01 +2.2722466841e+02 2.3318463365e+02 0.0000000000e+00 0.0000e+00 -1.0000e+00
<mgrwt>
<rscale>  4 0.19032445E+03</rscale>
<asrwt>0</asrwt>
<pdfrwt beam="1">  1       21 0.11331620E+00 0.19032445E+03</pdfrwt>
<pdfrwt beam="2">  1       21 0.19259776E-01 0.19032445E+03</pdfrwt>
<totfact> 0.15073079E+04</totfact>
</mgrwt>
</event>
<event>
 6      1 +2.5168241e+02 2.26178200e+02 7.54677100e-03 1.17132900e-01
       21 -1    0    0  505  502 +0.0000000000e+00 +0.0000000000e+00 +7.2664614161e+02 7.2664614161e+02 0.0000000000e+00 0.0000e+00 -1.0000e+00
       21 -1    0    0  504  503 -0.0000000000e+00 -0.0000000000e+00 -1.2130677114e+02 1.2130677114e+02 0.0000000000e+00 0.0000e+00 -1.0000e+00
        6  1    1    2  501    0 +1.7269343997e+01 -1.6001941877e+02 +1.5232381112e+02 2.8113339905e+02 1.7300000000e+02 0.0000e+00 -1.0000e+00
       -6  1    1    2    0  502 +1.5128336721e+01 +1.2976574657e+02 +1.9935617477e+02 2.9451638320e+02 1.7300000000e+02 0.0000e+00 -1.0000e+00
       21  1    1    2  504  501 -2.2647763716e+01 +1.7538995229e+00 +6.9403572513e+00 2.3752177240e+01 0.0000000000e+00 0.0000e+00 -1.0000e+00
       21  1    1    2  505  503 -9.7499170013e+00 +2.8499772672e+01 +2.4671902732e+02 2.4855095326e+02 0.0000000000e+00 0.0000e+00 -1.0000e+00
<mgrwt>
<rscale>  4 0.22617819E+03</rscale>
<asrwt>0</asrwt>
<pdfrwt beam="1">  1       21 0.11179171E+00 0.22617819E+03</pdfrwt>
<pdfrwt beam="2">  1       21 0.18662581E-01 0.22617819E+03</pdfrwt>
<totfact> 0.16147072E+04</totfact>
</mgrwt>
</event>
<event>
 6      1 +2.5168241e+02 1.78385600e+02 7.54677100e-03 1.06249800e-01
       21 -1    0    0  504  502 +0.0000000000e+00 +0.0000000000e+00 +2.3393156485e+03 2.3393156485e+03 0.0000000000e+00 0.0000e+00 1.0000e+00
       21 -1    0    0  502  503 -0.0000000000e+00 -0.0000000000e+00 -2.4631292555e+01 2.4631292555e+01 0.0000000000e+00 0.0000e+00 1.0000e+00
        6  1    1    2  501    0 -2.7464866588e+01 +2.6694960316e+01 +5.7281052272e+02 5.9958972201e+02 1.7300000000e+02 0.0000e+00 -1.0000e+00
       -6  1    1    2    0  503 +7.0530260536e+01 +3.6502566772e+01 +9.9170047728e+02 1.0098048285e+03 1.7300000000e+02 0.0000e+00 -1.0000e+00
       21  1    1    2  504  505 -4.0873253551e+01 -3.9505146093e+01 +4.8725444915e+02 4.9055904603e+02 0.0000000000e+00 0.0000e+00 1.0000e+00
       21  1    1    2  505  501 -2.1921403974e+00 -2.3692380995e+01 +2.6291890684e+02 2.6399334456e+02 0.0000000000e+00 0.0000e+00 1.0000e+00
<mgrwt>
<rscale>  4 0.17838558E+03</rscale>
<asrwt>0</asrwt>
<pdfrwt beam="1">  1       21 0.35989454E+00 0.17838558E+03</pdfrwt>
<pdfrwt beam="2">  1       21 0.37894315E-02 0.17838558E+03</pdfrwt>
<totfact> 0.66781302E+03</totfact>
</mgrwt>
</event>
<event>
 6      1 +2.5168241e+02 1.86335500e+02 7.54677100e-03 1.06249800e-01
       21 -1    0    0  504  502 +0.0000000000e+00 +0.0000000000e+00 +5.6988166062e+02 5.6988166062e+02 0.0000000000e+00 0.0000e+00 1.0000e+00
       21 -1    0    0  502  503 -0.0000000000e+00 -0.0000000000e+00 -6.5908245333e+02 6.5908245333e+02 0.0000000000e+00 0.0000e+00 1.0000e+00
        6  1    1    2  501    0 +2.9032635043e+01 +5.4835804702e+01 -4.0244151026e+02 4.4242290690e+02 1.7300000000e+02 0.0000e+00 1.0000e+00
       -6  1    1    2    0  503 +6.7129196058e+01 -1.3290910864e+02 -1.2997499238e+02 2.6266644013e+02 1.7300000000e+02 0.0000e+00 -1.0000e+00
       21  1    1    2  504  505 -3.2999419473e+01 -2.2408360887e+01 -2.0754656135e+01 4.4965009447e+01 0.0000000000e+00 0.0000e+00 -1.0000e+00
       21  1    1    2  505  501 -6.3162411627e+01 +1.0048166483e+02 +4.6397036607e+02 4.7890975747e+02 0.0000000000e+00 0.0000e+00 1.0000e+00
<mgrwt>
<rscale>  4 0.18633554E+03</rscale>
<asrwt>0</asrwt>
<pdfrwt beam="1">  1       21 0.87674102E-01 0.18633554E+03</pdfrwt>
<pdfrwt beam="2">  1       21 0.10139730E+00 0.18633554E+03</pdfrwt>
<totfact> 0.89231528E+02</totfact>
</mgrwt>
</event>
<event>
 6      1 +2.5168241e+02 1.85862500e+02 7.54677100e-03 1.17132900e-01
       21 -1    0    0  505  502 +0.0000000000e+00 +0.0000000000e+00 +3.7234815851e+02 3.7234815851e+02 0.0000000000e+00 0.0000e+00 -1.0000e+00
       21 -1    0    0  504  503 -0.0000000000e+00 -0.0000000000e+00 -1.2416833000e+03 1.2416833000e+03 0.0000000000e+00 0.0000e+00 -1.0000e+00
        6  1    1    2  501    0 -5.1965391854e+01 +3.7168430359e+01 -1.0688095718e+03 1.0846035197e+03 1.7300000000e+02 0.0000e+00 -1.0000e+00
       -6  1    1    2    0  502 +8.6603407060e+01 -5.6555462629e+01 -7.8054026323e+01 2.1614833215e+02 1.7300000000e+02 0.0000e+00 -1.0000e+00
       21  1    1    2  504  501 -1.1177449166e+01 -1.7307694797e+01 -9.6967837211e+00 2.2771018501e+01 0.0000000000e+00 0.0000e+00 1.0000e+00
       21  1    1    2  505  503 -2.3460566040e+01 +3.6694727067e+01 +2.8722524030e+02 2.9050858820e+02 0.0000000000e+00 0.0000e+00 -1.0000e+00
<mgrwt>
<rscale>  4 0.18586252E+03</rscale>
<asrwt>0</asrwt>
<pdfrwt beam="1">  1       21 0.57284332E-01 0.18586252E+03</pdfrwt>
<pdfrwt beam="2">  1       21 0.19102820E+00 0.18586252E+03</pdfrwt>
<totfact> 0.44307869E+02</totfact>
</mgrwt>
</event>
<event>
 6      1 +2.5168241e+02 1.84599200e+02 7.54677100e-03 1.16820100e-01
       21 -1    0    0  505  502 +0.0000000000e+00 +0.0000000000e+00 +4.1987434095e+02 4.1987434095e+02 0.0000000000e+00 0.0000e+00 -1.0000e+00
       21 -1    0    0  504  503 -0.0000000000e+00 -0.0000000000e+00 -8.6231274337e+02 8.6231274337e+02 0.0000000000e+00 0.0000e+00 -1.0000e+00
        6  1    1    2  501    0 +5.9911468909e+01 -3.7289440382e+00 -2.6558766731e+02 3.2259742429e+02 1.7300000000e+02 0.0000e+00 1.0000e+00
       -6  1    1    2    0  503 -7.1554694371e+01 +5.3431081818e+00 -2.8708636180e+02 3.4277719034e+02 1.7300000000e+02 0.0000e+00 -1.0000e+00
       21  1    1    2  504  502 +3.4577983385e+01 -1.6063301941e+01 -2.5134342395e+02 2.5421877068e+02 0.0000000000e+00 0.0000e+00 -1.0000e+00
       21  1    1    2  505  501 -2.2934757923e+01 +1.4449137797e+01 +3.6157905064e+02 3.6259369901e+02 0.0000000000e+00 0.0000e+00 -1.0000e+00
<mgrwt>
<rscale>  4 0.18459919E+03</rscale>
<asrwt>0</asrwt>
<pdfrwt beam="1">  1       21 0.64596053E-01 0.18459919E+03</pdfrwt>
<pdfrwt beam="2">  1       21 0.13266350E+00 0.18459919E+03</pdfrwt>
<totfact> 0.91501048E+02</totfact>
</mgrwt>
</event>
<event>
 6      1 +2.5168241e+02 2.36090000e+02 7.54677100e-03 1.16820100e-01
       21 -1    0    0  501  502 +0.0000000000e+00 +0.0000000000e+00 +1.2872651023e+03 1.2872651023e+03 0.0000000000e+00 0.0000e+00 1.0000e+00
       21 -1    0    0  504  503 -0.0000000000e+00 -0.0000000000e+00 -7.8909588462e+01 7.8909588462e+01 0.0000000000e+00 0.0000e+00 -1.0000e+00
        6  1    1    2  501    0 +6.2711393539e+01 +1.5576591528e+02 +6.4470885063e+02 6.8831260436e+02 1.7300000000e+02 0.0000e+00 1.0000e+00
       -6  1    1    2    0  503 -1.1246426164e+02 -1.1285541914e+02 +5.3006404216e+02 5.7989778803e+02 1.7300000000e+02 0.0000e+00 1.0000e+00
       21  1    1    2  504  505 +2.8063579480e+01 -1.0923905427e+01 -1.6786413956e+01 3.4477237367e+01 0.0000000000e+00 0.0000e+00 -1.0000e+00
       21  1    1    2  505  502 +2.1689288622e+01 -3.1986590705e+01 +5.0369034965e+01 6.3487060958e+01 0.0000000000e+00 0.0000e+00 -1.0000e+00
<mgrwt>
<rscale>  4 0.23609002E+03</rscale>
<asrwt>0</asrwt>
<pdfrwt beam="1">  1       21 0.19804077E+00 0.23609002E+03</pdfrwt>
<pdfrwt beam="2">  1       21 0.12139938E-01 0.23609002E+03</pdfrwt>
<totfact> 0.76707843E+03</totfact>
</mgrwt>
</event>
<event>
 6      1 +2.5168241e+02 3.04100500e+02 7.54677100e-03 1.07240600e-01
       21 -1    0    0  505  502 +0.0000000000e+00 +0.0000000000e+00 +6.0758242167e+02 6.0758242167e+02 0.0000000000e+00 0.0000e+00 1.0000e+00
       21 -1    0    0  504  503 -0.0000000000e+00 -0.0000000000e+00 -4.3160006981e+02 4.3160006981e+02 0.0000000000e+00 0.0000e+00 1.0000e+00
        6  1    1    2  501    0 -3.0278785953e+02 -9.8240543931e+01 +3.1458912844e+02 4.7981977042e+02 1.7300000000e+02 0.0000e+00 1.0000e+00
       -6  1    1    2    0  502 +1.3272843284e+02 +1.2082151210e+02 +5.8578470634e+01 2.5607637902e+02 1.7300000000e+02 0.0000e+00 -1.0000e+00
       21  1    1    2  504  501 -5.2681857598e+00 -4.6445789223e+01 -1.4460977164e+01 4.8929387675e+01 0.0000000000e+00 0.0000e+00 -1.0000e+00
       21  1    1    2  505  503 +1.7532761246e+02 +2.3864821052e+01 -1.8272427004e+02 2.5435695437e+02 0.0000000000e+00 0.0000e+00 1.0000e+00
<mgrwt>
<rscale>  4 0.30410048E+03</rscale>
<asrwt>0</asrwt>
<pdfrwt beam="1">  1       21 0.93474219E-01 0.30410048E+03</pdfrwt>
<pdfrwt beam="2">  1       21 0.66400011E-01 0.30410048E+03</pdfrwt>
<totfact> 0.18442282E+03</totfact>
</mgrwt>
</event>
<event>
 6      1 +2.5168241e+02 3.07121800e+02 7.54677100e-03 1.16820100e-01
       21 -1    0    0  504  502 +0.0000000000e+00 +0.0000000000e+00 +4.6705690563e+02 4.6705690563e+02 0.0000000000e+00 0.0000e+00 -1.0000e+00
       21 -1    0    0  501  503 -0.0000000000e+00 -0.0000000000e+00 -7.6696309966e+02 7.6696309966e+02 0.0000000000e+00 0.0000e+00 -1.0000e+00
        6  1    1    2  501    0 -2.1097569483e+02 -1.7607900437e+02 -2.3159854932e+02 3.9885015686e+02 1.7300000000e+02 0.0000e+00 -1.0000e+00
       -6  1    1    2    0  505 +1.6590094340e+02 +1.9877421845e+02 -2.6170851205e+01 3.1248716197e+02 1.7300000000e+02 0.0000e+00 -1.0000e+00
       21  1    1    2  504  503 +3.8148710379e+01 +2.6084597286e+01 -2.7795598372e+02 2.8177164372e+02 0.0000000000e+00 0.0000e+00 -1.0000e+00
       21  1    1    2  505  502 +6.9260410432e+00 -4.8779811367e+01 +2.3581919021e+02 2.4091104274e+02 0.0000000000e+00 0.0000e+00 -1.0000e+00
<mgrwt>
<rscale>  4 0.30712180E+03</rscale>
<asrwt>0</asrwt>
<pdfrwt beam="1">  1       21 0.71854910E-01 0.30712180E+03</pdfrwt>
<pdfrwt beam="2">  1       21 0.11799432E+00 0.30712180E+03</pdfrwt>
<totfact> 0.87685596E+02</totfact>
</mgrwt>
</event>
<event>
 6      1 +2.5168241e+02 1.88222700e+02 7.54677100e-03 1.15942100e-01
       21 -1    0    0  504  502 +0.0000000000e+00 +0.0000000000e+00 +1.5756996823e+02 1.5756996823e+02 0.0000000000e+00 0.0000e+00 1.0000e+00
       21 -1    0    0  501  503 -0.0000000000e+00 -0.0000000000e+00 -5.7517565990e+02 5.7517565990e+02 0.0000000000e+00 0.0000e+00 1.0000e+00
        6  1    1    2  501    0 +2.0699486508e+01 +1.1152725955e+02 -1.0897874058e+02 2.3382079519e+02 1.7300000000e+02 0.0000e+00 1.0000e+00
       -6  1    1    2    0  502 +3.6305574865e+01 -5.0512288777e+01 -8.3901444656e+00 1.8403527001e+02 1.7300000000e+02 0.0000e+00 -1.0000e+00
       21  1    1    2  504  505 -1.3168363344e+01 -2.8042278351e+01 -5.0871065298e+01 5.9562072268e+01 0.0000000000e+00 0.0000e+00 -1.0000e+00
       21  1    1    2  505  503 -4.3836698029e+01 -3.2972692419e+01 -2.4936574133e+02 2.5532749066e+02 0.0000000000e+00 0.0000e+00 1.0000e+00
<mgrwt>
<rscale>  4 0.18822268E+03</rscale>
<asrwt>0</asrwt>
<pdfrwt beam="1">  1       21 0.24241533E-01 0.18822268E+03</pdfrwt>
<pdfrwt beam="2">  1       21 0.88488564E-01 0.18822268E+03</pdfrwt>
<totfact> 0.17597375E+04</totfact>
</mgrwt>
</event>
<event>
 6      1 +2.5168241e+02 3.54957700e+02 7.54677100e-03 1.12068800e-01
       21 -1    0    0  504  502 +0.0000000000e+00 +0.0000000000e+00 +9.9023760909e+02 9.9023760909e+02 0.0000000000e+00 0.0000e+00 -1.0000e+00
       21 -1    0    0  502  503 -0.0000000000e+00 -0.0000000000e+00 -2.0620280973e+02 2.0620280973e+02 0.0000000000e+00 0.0000e+00 -1.0000e+00
        6  1    1    2  501    0 +3.0155852210e+02 +5.9461715606e+01 +5.2701187190e+02 6.3414805133e+02 1.7300000000e+02 0.0000e+00 1.0000e+00
       -6  1    1    2    0  505 +1.4267852411e+01 -4.0636198393e+01 +8.2644738394e+01 1.9650451653e+02 1.7300000000e+02 0.0000e+00 -1.0000e+00
       21  1    1    2  504  501 -2.8553760079e+02 -3.3817543686e+01 +1.6008596709e+02 3.2909400569e+02 0.0000000000e+00 0.0000e+00 -1.0000e+00
       21  1    1    2  505  503 -3.0288773725e+01 +1.4992026473e+01 +1.4292221970e+01 3.6693845266e+01 0.0000000000e+00 0.0000e+00 -1.0000e+00
<mgrwt>
<rscale>  4 0.29881904E+03</rscale>
<asrwt>0</asrwt>
<pdfrwt beam="1">  1       21 0.15234425E+00 0.35495766E+03</pdfrwt>
<pdfrwt beam="2">  1       21 0.31723510E-01 0.35495766E+03</pdfrwt>
<totfact> 0.24537827E+03</totfact>
</mgrwt>
</event>
<event>
 6      1 +2.5168241e+02 1.74316100e+02 7.54677100e-03 1.16820100e-01
       21 -1    0    0  504  502 +0.0000000000e+00 +0.0000000000e+00 +1.3994589820e+02 1.3994589820e+02 0.0000000000e+00 0.0000e+00 1.0000e+00
       21 -1    0    0  501  503 -0.0000000000e+00 -0.0000000000e+00 -5.4126262547e+02 5.4126262547e+02 0.0000000000e+00 0.0000e+00 1.0000e+00
        6  1    1    2  501    0 +1.4290123964e+01 +1.5166162909e+01 -1.8671187280e+02 2.5539096222e+02 1.7300000000e+02 0.0000e+00 1.0000e+00
       -6  1    1    2    0  505 +2.1743052658e+01 -7.4564917675e-01 -2.7264924805e+01 1.7648142241e+02 1.7300000000e+02 0.0000e+00 -1.0000e+00
       21  1    1    2  504  503 +1.8051912195e+01 +2.9711589878e+01 -1.7503498822e+02 1.7845418798e+02 0.0000000000e+00 0.0000e+00 1.0000e+00
       21  1    1    2  505  502 -5.4085088817e+01 -4.4132103611e+01 -1.2304941439e+01 7.0881951055e+01 0.0000000000e+00 0.0000e+00 -1.0000e+00
<mgrwt>
<rscale>  4 0.17431612E+03</rscale>
<asrwt>0</asrwt>
<pdfrwt beam="1">  1       21 0.21530138E-01 0.17431612E+03</pdfrwt>
<pdfrwt beam="2">  1       21 0.83271174E-01 0.17431612E+03</pdfrwt>
<totfact> 0.25517634E+04</totfact>
</mgrwt>
</event>
<event>
 6      1 +2.5168241e+02 3.29922700e+02 7.54677100e-03 1.07064900e-01
       21 -1    0    0  505  502 +0.0000000000e+00 +0.0000000000e+00 +6.0705912613e+02 6.0705912613e+02 0.0000000000e+00 0.0000e+00 -1.0000e+00
       21 -1    0    0  504  503 -0.0000000000e+00 -0.0000000000e+00 -4.1694938142e+02 4.1694938142e+02 0.0000000000e+00 0.0000e+00 1.0000e+00
        6  1    1    2  501    0 -1.4011171586e+01 -2.8926283657e+02 +5.4411652232e+01 3.4170005772e+02 1.7300000000e+02 0.0000e+00 -1.0000e+00
       -6  1    1    2    0  503 -4.8232987017e+01 +2.7447426780e+02 -1.4045744840e+02 3.5681905713e+02 1.7300000000e+02 0.0000e+00 1.0000e+00
       21  1    1    2  504  502 +6.0334215617e+01 +7.9287875960e+01 +1.1654221944e+02 1.5332603745e+02 0.0000000000e+00 0.0000e+00 -1.0000e+00
       21  1    1    2  505  501 +1.9099429856e+00 -6.4499307195e+01 +1.5961332143e+02 1.7216335525e+02 0.0000000000e+00 0.0000e+00 -1.0000e+00
<mgrwt>
<rscale>  4 0.32992274E+03</rscale>
<asrwt>0</asrwt>
<pdfrwt beam="1">  1       21 0.93393711E-01 0.32992274E+03</pdfrwt>
<pdfrwt beam="2">  1       21 0.64146059E-01 0.32992274E+03</pdfrwt>
<totfact> 0.19657576E+03</totfact>
</mgrwt>
</event>
<event>
 6      1 +2.5168241e+02 1.77553600e+02 7.54677100e-03 1.17132900e-01
       21 -1    0    0  505  502 +0.0000000000e+00 +0.0000000000e+00 +1.6293717061e+03 1.6293717061e+03 0.0000000000e+00 0.0000e+00 -1.0000e+00
       21 -1    0    0  504  503 -0.0000000000e+00 -0.0000000000e+00 -2.3001705523e+02 2.3001705523e+02 0.0000000000e+00 0.0000e+00 -1.0000e+00
        6  1    1    2  501    0 +6.8874626707e+00 +9.8950597867e+01 +4.0287048843e+02 4.4952451369e+02 1.7300000000e+02 0.0000e+00 1.0000e+00
       -6  1    1    2    0  502 +4.2422221308e+01 +3.6550782285e+01 +6.3767541787e+01 1.9269380875e+02 1.7300000000e+02 0.0000e+00 -1.0000e+00
       21  1    1    2  504  501 +1.9931212859e+01 -1.0229668632e+01 -1.3654529774e+02 1.3837094240e+02 0.0000000000e+00 0.0000e+00 -1.0000e+00
       21  1    1    2  505  503 -6.9240896838e+01 -1.2527171152e+02 +1.0692619183e+03 1.0787994964e+03 0.0000000000e+00 0.0000e+00 -1.0000e+00
<mgrwt>
<rscale>  4 0.17755364E+03</rscale>
<asrwt>0</asrwt>
<pdfrwt beam="1">  1       21 0.25067256E+00 0.17755364E+03</pdfrwt>
<pdfrwt beam="2">  1       21 0.35387240E-01 0.17755364E+03</pdfrwt>
<totfact> 0.51797539E+02</totfact>
</mgrwt>
</event>
<event>
 6      1 +2.5168241e+02 1.88463700e+02 7.54677100e-03 1.04003000e-01
       21 -1    0    0  504  502 +0.0000000000e+00 +0.0000000000e+00 +3.8770281700e+02 3.8770281700e+02 0.0000000000e+00 0.0000e+00 1.0000e+00
       21 -1    0    0  502  503 -0.0000000000e+00 -0.0000000000e+00 -3.9465384425e+02 3.9465384425e+02 0.0000000000e+00 0.0000e+00 1.0000e+00
        6  1    1    2  501    0 -1.6473182883e+01 +6.1532695603e+01 +7.0409757915e+01 1.9734277892e+02 1.7300000000e+02 0.0000e+00 -1.0000e+00
       -6  1    1    2    0  505 +3.0549078479e+01 -7.5533307610e+01 +2.0700735825e+02 2.8181478514e+02 1.7300000000e+02 0.0000e+00 1.0000e+00
       21  1    1    2  504  501 -1.9565339473e+01 -1.3764870236e+01 -2.7072432707e+02 2.7177920346e+02 0.0000000000e+00 0.0000e+00 1.0000e+00
       21  1    1    2  505  503 +5.4894438775e+00 +2.7765482243e+01 -1.3643816334e+01 3.1419893737e+01 0.0000000000e+00 0.0000e+00 -1.0000e+00
<mgrwt>
<rscale>  4 0.18846365E+03</rscale>
<asrwt>0</asrwt>
<pdfrwt beam="1">  1       21 0.59646587E-01 0.18846365E+03</pdfrwt>
<pdfrwt beam="2">  1       21 0.60715976E-01 0.18846365E+03</pdfrwt>
<totfact> 0.66495373E+03</totfact>
</mgrwt>
</event>
<event>
 6      1 +2.5168241e+02 2.04393100e+02 7.54677100e-03 1.16820100e-01
       21 -1    0    0  505  502 +0.0000000000e+00 +0.0000000000e+00 +3.6891976550e+02 3.6891976550e+02 0.0000000000e+00 0.0000e+00 1.0000e+00
       21 -1    0    0  501  503 -0.0000000000e+00 -0.0000000000e+00 -2.0195097782e+02 2.0195097782e+02 0.0000000000e+00 0.0000e+00 1.0000e+00
        6  1    1    2  501    0 -4.2936546525e+01 -8.3434054053e+01 -3.9752371068e+01 2.0078356359e+02 1.7300000000e+02 0.0000e+00 1.0000e+00
       -6  1    1    2    0  504 +5.8827484858e+01 +1.2778287693e+02 +9.7274442063e+01 2.4327033048e+02 1.7300000000e+02 0.0000e+00 1.0000e+00
       21  1    1    2  504  502 -1.6750735613e+01 -2.3019581965e+01 +1.9834437357e+01 3.4697164188e+01 0.0000000000e+00 0.0000e+00 1.0000e+00
       21  1    1    2  505  503 +8.5979727991e-01 -2.1329240914e+01 +8.9612279334e+01 9.2119685067e+01 0.0000000000e+00 0.0000e+00 1.0000e+00
<mgrwt>
<rscale>  4 0.20439313E+03</rscale>
<asrwt>0</asrwt>
<pdfrwt beam="1">  1       21 0.56756887E-01 0.20439313E+03</pdfrwt>
<pdfrwt beam="2">  1       21 0.31069381E-01 0.20439313E+03</pdfrwt>
<totfact> 0.28849528E+04</totfact>
</mgrwt>
</event>
<event>
 6      1 +2.5168241e+02 2.01497600e+02 7.54677100e-03 1.12068800e-01
       21 -1    0    0  504  502 +0.0000000000e+00 +0.0000000000e+00 +8.0205459361e+02 8.0205459361e+02 0.0000000000e+00 0.0000e+00 -1.0000e+00
       21 -1    0    0  502  503 -0.0000000000e+00 -0.0000000000e+00 -3.1191666195e+02 3.1191666195e+02 0.0000000000e+00 0.0000e+00 -1.0000e+00
        6  1    1    2  501    0 +1.1990437986e+02 -3.5281372226e+01 +4.7447423122e+02 5.2026592395e+02 1.7300000000e+02 0.0000e+00 -1.0000e+00
       -6  1    1    2    0  505 -5.8939425910e+01 -1.4424099144e+02 +1.9982920054e+02 3.0682247136e+02 1.7300000000e+02 0.0000e+00 1.0000e+00
       21  1    1    2  504  501 +5.1683684737e+00 +1.2329611958e+02 -6.5066809476e+01 1.3950747232e+02 0.0000000000e+00 0.0000e+00 -1.0000e+00
       21  1    1    2  505  503 -6.6133322424e+01 +5.6226244087e+01 -1.1909869063e+02 1.4737538794e+02 0.0000000000e+00 0.0000e+00 -1.0000e+00
<mgrwt>
<rscale>  4 0.20149757E+03</rscale>
<asrwt>0</asrwt>
<pdfrwt beam="1">  1       21 0.12339301E+00 0.20149757E+03</pdfrwt>
<pdfrwt beam="2">  1       21 0.47987179E-01 0.20149757E+03</pdfrwt>
<totfact> 0.20282182E+03</totfact>
</mgrwt>
</event>
<event>
 6      1 +2.5168241e+02 3.00667300e+02 7.54677100e-03 1.15942100e-01
       21 -1    0    0  504  502 +0.0000000000e+00 +0.0000000000e+00 +6.1499957276e+02 6.1499957276e+02 0.0000000000e+00 0.0000e+00 1.0000e+00
       21 -1    0    0  501  503 -0.0000000000e+00 -0.0000000000e+00 -5.4471084474e+02 5.4471084474e+02 0.0000000000e+00 0.0000e+00 1.0000e+00
        6  1    1    2  501    0 +3.1575559010e+01 +2.3818064216e+02 +4.6269074880e+02 5.4930753067e+02 1.7300000000e+02 0.0000e+00 1.0000e+00
       -6  1    1    2    0  505 +6.0816204274e+00 -2.8403923199e+02 -1.6961567849e+02 3.7338150705e+02 1.7300000000e+02 0.0000e+00 1.0000e+00
       21  1    1    2  504  503 -1.1480321635e+01 +2.8472345091e+01 -1.8654055004e+02 1.8904985858e+02 0.0000000000e+00 0.0000e+00 1.0000e+00
       21  1    1    2  505  502 -2.6176857802e+01 +1.7386244737e+01 -3.6245792246e+01 4.7971521197e+01 0.0000000000e+00 0.0000e+00 -1.0000e+00
<mgrwt>
<rscale>  4 0.30066725E+03</rscale>
<asrwt>0</asrwt>
<pdfrwt beam="1">  1       21 0.94615319E-01 0.30066725E+03</pdfrwt>
<pdfrwt beam="2">  1       21 0.83801669E-01 0.30066725E+03</pdfrwt>
<totfact> 0.10617811E+03</totfact>
</mgrwt>
</event>
<event>
 6      1 +2.5168241e+02 2.06978500e+02 7.54677100e-03 1.16820100e-01
       21 -1    0    0  505  502 +0.0000000000e+00 +0.0000000000e+00 +1.3555410212e+02 1.3555410212e+02 0.0000000000e+00 0.0000e+00 1.0000e+00
       21 -1    0    0  501  503 -0.0000000000e+00 -0.0000000000e+00 -7.0828280327e+02 7.0828280327e+02 0.0000000000e+00 0.0000e+00 1.0000e+00
        6  1    1    2  501    0 +6.7644773011e+01 +1.1597879930e+02 -1.4799911350e+02 2.6430973270e+02 1.7300000000e+02 0.0000e+00 1.0000e+00
       -6  1    1    2    0  502 +6.4442530231e+01 -1.1194580571e+02 -1.9701236695e+02 2.9227996143e+02 1.7300000000e+02 0.0000e+00 -1.0000e+00
       21  1    1    2  504  503 -1.4978122209e+02 +7.5336043854e+00 -2.1634881739e+02 2.6324509581e+02 0.0000000000e+00 0.0000e+00 1.0000e+00
       21  1    1    2  505  504 +1.7693918844e+01 -1.1566597969e+01 -1.1368403312e+01 2.4002115459e+01 0.0000000000e+00 0.0000e+00 -1.0000e+00
<mgrwt>
<rscale>  4 0.20697854E+03</rscale>
<asrwt>0</asrwt>
<pdfrwt beam="1">  1       21 0.20854478E-01 0.20697854E+03</pdfrwt>
<pdfrwt beam="2">  1       21 0.10896658E+00 0.20697854E+03</pdfrwt>
<totfact> 0.14126697E+04</totfact>
</mgrwt>
</event>
<event>
 6      1 +2.5168241e+02 2.73734400e+02 7.54677100e-03 1.16820100e-01
       21 -1    0    0  504  502 +0.0000000000e+00 +0.0000000000e+00 +2.0672438846e+03 2.0672438846e+03 0.0000000000e+00 0.0000e+00 1.0000e+00
       21 -1    0    0  501  503 -0.0000000000e+00 -0.0000000000e+00 -1.2197277094e+02 1.2197277094e+02 0.0000000000e+00 0.0000e+00 -1.0000e+00
        6  1    1    2  501    0 -1.0128757590e+02 +1.7636013891e+02 +2.0393221352e+02 3.3597532549e+02 1.7300000000e+02 0.0000e+00 -1.0000e+00
       -6  1    1    2    0  505 +1.3716712484e+02 -1.5279679163e+02 +1.3163848364e+03 1.3434878925e+03 1.7300000000e+02 0.0000e+00 1.0000e+00
       21  1    1    2  504  503 -2.6069416785e+01 -6.1734731108e-01 -3.8022183340e+01 4.6105119403e+01 0.0000000000e+00 0.0000e+00 -1.0000e+00
       21  1    1    2  505  502 -9.8101321601e+00 -2.2945999968e+01 +4.6297624703e+02 4.6364831815e+02 0.0000000000e+00 0.0000e+00 1.0000e+00
<mgrwt>
<rscale>  4 0.27373441E+03</rscale>
<asrwt>0</asrwt>
<pdfrwt beam="1">  1       21 0.31803750E+00 0.27373441E+03</pdfrwt>
<pdfrwt beam="2">  1       21 0.18765043E-01 0.27373441E+03</pdfrwt>
<totfact> 0.63320195E+02</totfact>
</mgrwt>
</event>
<event>
 6      1 +2.5168241e+02 1.75140400e+02 7.54677100e-03 1.07240600e-01
       21 -1    0    0  505  502 +0.0000000000e+00 +0.0000000000e+00 +1.2821535498e+03 1.2821535498e+03 0.0000000000e+00 0.0000e+00 1.0000e+00
       21 -1    0    0  504  503 -0.0000000000e+00 -0.0000000000e+00 -1.5501962641e+02 1.5501962641e+02 0.0000000000e+00 0.0000e+00 -1.0000e+00
        6  1    1    2  501    0 -5.1541934763e+01 +2.9412188128e+01 +5.5416846124e+02 5.8356947426e+02 1.7300000000e+02 0.0000e+00 -1.0000e+00
       -6  1    1    2    0  502 +5.8476725183e+00 +2.5202482855e+01 +5.4139582066e+02 5.6895324505e+02 1.7300000000e+02 0.0000e+00 1.0000e+00
       21  1    1    2  504  501 -2.1497009305e+01 -1.3972973563e+01 +1.4469083880e+02 1.4694490203e+02 0.0000000000e+00 0.0000e+00 1.0000e+00
       21  1    1    2  505  503 +6.7191271550e+01 -4.0641697421e+01 -1.1312119736e+02 1.3770555484e+02 0.0000000000e+00 0.0000e+00 -1.0000e+00
<mgrwt>
<rscale>  4 0.17514043E+03</rscale>
<asrwt>0</asrwt>
<pdfrwt beam="1">  1       21 0.19725439E+00 0.17514043E+03</pdfrwt>
<pdfrwt beam="2">  1       21 0.23849174E-01 0.17514043E+03</pdfrwt>
<totfact> 0.23604295E+03</totfact>
</mgrwt>
</event>
<event>
 6      1 +2.5168241e+02 1.79146100e+02 7.54677100e-03 1.17132900e-01
       21 -1    0    0  505  502 +0.0000000000e+00 +0.0000000000e+00 +1.6194089773e+02 1.6194089773e+02 0.0000000000e+00 0.0000e+00 -1.0000e+00
       21 -1    0    0  504  503 -0.0000000000e+00 -0.0000000000e+00 -4.5167811268e+02 4.5167811268e+02 0.0000000000e+00 0.0000e+00 -1.0000e+00
        6  1    1    2  501    0 -9.1165039815e+00 +5.7797560111e+01 -1.3609728239e+02 2.2776114435e+02 1.7300000000e+02 0.0000e+00 -1.0000e+00
       -6  1    1    2    0  502 -3.2964296487e+01 -4.0159810292e+01 -3.7716027471e+01 1.8452900567e+02 1.7300000000e+02 0.0000e+00 -1.0000e+00
       21  1    1    2  504  501 +6.2823036806e+00 -2.2382479244e+01 -1.4993252777e+02 1.5172411015e+02 0.0000000000e+00 0.0000e+00 -1.0000e+00
       21  1    1    2  505  503 +3.5798496787e+01 +4.7447294239e+00 +3.4008622688e+01 4.9604750243e+01 0.0000000000e+00 0.0000e+00 -1.0000e+00
<mgrwt>
<rscale>  4 0.17914611E+03</rscale>
<asrwt>0</asrwt>
<pdfrwt beam="1">  1       21 0.24913984E-01 0.17914611E+03</pdfrwt>
<pdfrwt beam="2">  1       21 0.69488941E-01 0.17914611E+03</pdfrwt>
<totfact> 0.28925563E+04</totfact>
</mgrwt>
</event>
<event>
 6      1 +2.5168241e+02 2.03956500e+02 7.54677100e-03 1.15942100e-01
       21 -1    0    0  504  502 +0.0000000000e+00 +0.0000000000e+00 +9.1595949800e+02 9.1595949800e+02 0.0000000000e+00 0.0000e+00 -1.0000e+00
       21 -1    0    0  501  503 -0.0000000000e+00 -0.0000000000e+00 -6.7681769812e+01 6.7681769812e+01 0.0000000000e+00 0.0000e+00 -1.0000e+00
        6  1    1    2  501    0 +3.0650847037e+01 +1.1588098820e+02 +2.5831606282e+02 3.3320274033e+02 1.7300000000e+02 0.0000e+00 -1.0000e+00
       -6  1    1    2    0  502 -6.4118814393e+01 -8.3328388223e+01 +5.3404476504e+02 5.7112840387e+02 1.7300000000e+02 0.0000e+00 -1.0000e+00
       21  1    1    2  504  505 +1.4357302717e+01 -2.5244147437e+01 +5.0318147452e+01 5.8097461943e+01 0.0000000000e+00 0.0000e+00 1.0000e+00
       21  1    1    2  505  503 +1.9110664639e+01 -7.3084525411e+00 +5.5987528811e+00 2.1212661675e+01 0.0000000000e+00 0.0000e+00 -1.0000e+00
<mgrwt>
<rscale>  4 0.20395652E+03</rscale>
<asrwt>0</asrwt>
<pdfrwt beam="1">  1       21 0.14091684E+00 0.20395652E+03</pdfrwt>
<pdfrwt beam="2">  1       21 0.10412581E-01 0.20395652E+03</pdfrwt>
<totfact> 0.26391147E+04</totfact>
</mgrwt>
</event>
<event>
 6      1 +2.5168241e+02 2.84735400e+02 7.54677100e-03 1.09842800e-01
       21 -1    0    0  503  502 +0.0000000000e+00 +0.0000000000e+00 +1.6823892017e+03 1.6823892017e+03 0.0000000000e+00 0.0000e+00 1.0000e+00
       21 -1    0    0  501  503 -0.0000000000e+00 -0.0000000000e+00 -1.6503428889e+02 1.6503428889e+02 0.0000000000e+00 0.0000e+00 1.0000e+00
        6  1    1    2  501    0 +1.9061583107e+02 +1.0650278015e+02 +1.1955175848e+03 1.2275457355e+03 1.7300000000e+02 0.0000e+00 1.0000e+00
       -6  1    1    2    0  504 -1.8432992597e+02 +6.0631035205e+00 +3.2029756611e+00 2.5289037524e+02 1.7300000000e+02 0.0000e+00 1.0000e+00
       21  1    1    2  504  505 -3.4294720546e+01 -1.0289968384e+02 +1.0383433096e+02 1.5015339182e+02 0.0000000000e+00 0.0000e+00 1.0000e+00
       21  1    1    2  505  502 +2.8008815447e+01 -9.6661998347e+00 +2.1480002140e+02 2.1683398801e+02 0.0000000000e+00 0.0000e+00 -1.0000e+00
<mgrwt>
<rscale>  4 0.28473545E+03</rscale>
<asrwt>0</asrwt>
<pdfrwt beam="1">  1       21 0.25882910E+00 0.28473545E+03</pdfrwt>
<pdfrwt beam="2">  1       21 0.25389892E-01 0.28473545E+03</pdfrwt>
<totfact> 0.78784755E+02</totfact>
</mgrwt>
</event>
<event>
 6      1 +2.5168241e+02 1.75099900e+02 7.54677100e-03 1.07064900e-01
       21 -1    0    0  505  502 +0.0000000000e+00 +0.0000000000e+00 +6.0402605248e+01 6.0402605248e+01 0.0000000000e+00 0.0000e+00 -1.0000e+00
       21 -1    0    0  504  503 -0.0000000000e+00 -0.0000000000e+00 -1.8430910839e+03 1.8430910839e+03 0.0000000000e+00 0.0000e+00 -1.0000e+00
        6  1    1    2  501    0 +6.1932003501e+00 -2.5259906599e+01 -1.1918613205e+03 1.2046322367e+03 1.7300000000e+02 0.0000e+00 -1.0000e+00
       -6  1    1    2    0  503 -4.2471864562e+01 -2.9338173914e+01 -5.0242576716e+02 5.3387755078e+02 1.7300000000e+02 0.0000e+00 -1.0000e+00
       21  1    1    2  504  502 +2.3969616494e+01 +2.2444207580e+01 -1.1618885564e+02 1.2073994842e+02 0.0000000000e+00 0.0000e+00 1.0000e+00
       21  1    1    2  505  501 +1.2309047718e+01 +3.2153872933e+01 +2.7787464639e+01 4.4243953161e+01 0.0000000000e+00 0.0000e+00 -1.0000e+00
<mgrwt>
<rscale>  4 0.17509992E+03</rscale>
<asrwt>0</asrwt>
<pdfrwt beam="1">  1       21 0.92927085E-02 0.17509992E+03</pdfrwt>
<pdfrwt beam="2">  1       21 0.28355247E+00 0.17509992E+03</pdfrwt>
<totfact> 0.40034109E+03</totfact>
</mgrwt>
</event>
<event>
 6      1 +2.5168241e+02 2.04873600e+02 7.54677100e-03 1.16820100e-01
       21 -1    0    0  501  502 +0.0000000000e+00 +0.0000000000e+00 +9.3152674272e+02 9.3152674272e+02 0.0000000000e+00 0.0000e+00 -1.0000e+00
       21 -1    0    0  504  503 -0.0000000000e+00 -0.0000000000e+00 -5.5982157296e+02 5.5982157296e+02 0.0000000000e+00 0.0000e+00 1.0000e+00
        6  1    1    2  501    0 +1.0416757986e+01 +8.1959442480e+01 -1.0972699444e+02 2.2089561419e+02 1.7300000000e+02 0.0000e+00 1.0000e+00
       -6  1    1    2    0  503 -7.1964834801e+00 -1.3855735697e+02 -1.1151202871e+02 2.4822139934e+02 1.7300000000e+02 0.0000e+00 1.0000e+00
       21  1    1    2  504  505 -5.5716991384e+01 +3.9566193102e+01 -2.0823094694e+02 2.1915746400e+02 0.0000000000e+00 0.0000e+00 1.0000e+00
       21  1    1    2  505  502 +5.2496716878e+01 +1.7031721387e+01 +8.0117513984e+02 8.0307383815e+02 0.0000000000e+00 0.0000e+00 -1.0000e+00
<mgrwt>
<rscale>  4 0.20487361E+03</rscale>
<asrwt>0</asrwt>
<pdfrwt beam="1">  1       21 0.14331181E+00 0.20487361E+03</pdfrwt>
<pdfrwt beam="2">  1       21 0.86126396E-01 0.20487361E+03</pdfrwt>
<totfact> 0.38609705E+02</totfact>
</mgrwt>
</event>
<event>
 6      1 +2.5168241e+02 1.73622200e+02 7.54677100e-03 1.17132900e-01
       21 -1    0    0  505  502 +0.0000000000e+00 +0.0000000000e+00 +5.6911627796e+02 5.6911627796e+02 0.0000000000e+00 0.0000e+00 1.0000e+00
       21 -1    0    0  504  503 -0.0000000000e+00 -0.0000000000e+00 -1.4486855086e+02 1.4486855086e+02 0.0000000000e+00 0.0000e+00 1.0000e+00
        6  1    1    2  501    0 +2.9369198572e+01 +3.5373018700e+01 +1.5440993128e+02 2.3640056505e+02 1.7300000000e+02 0.0000e+00 1.0000e+00
       -6  1    1    2    0  502 +6.2030245898e+00 +5.3607576629e+01 +1.5276477473e+02 2.3701967468e+02 1.7300000000e+02 0.0000e+00 1.0000e+00
       21  1    1    2  504  501 -2.9735974584e+01 +3.2985808667e+00 -4.4960590007e+01 5.4005217100e+01 0.0000000000e+00 0.0000e+00 1.0000e+00
       21  1    1    2  505  503 -5.8362485774e+00 -9.2279176196e+01 +1.6203361109e+02 1.8655937199e+02 0.0000000000e+00 0.0000e+00 1.0000e+00
<mgrwt>
<rscale>  4 0.17362222E+03</rscale>
<asrwt>0</asrwt>
<pdfrwt beam="1">  1       21 0.87556349E-01 0.17362222E+03</pdfrwt>
<pdfrwt beam="2">  1       21 0.22287470E-01 0.17362222E+03</pdfrwt>
<totfact> 0.21333335E+04</totfact>
</mgrwt>
</event>
<event>
 6      1 +2.5168241e+02 3.43648100e+02 7.54677100e-03 1.05854100e-01
       21 -1    0    0  504  502 +0.0000000000e+00 +0.0000000000e+00 +1.1150883673e+02 1.1150883673e+02 0.0000000000e+00 0.0000e+00 -1.0000e+00
       21 -1    0    0  502  503 -0.0000000000e+00 -0.0000000000e+00 -4.0111386993e+03 4.0111386993e+03 0.0000000000e+00 0.0000e+00 -1.0000e+00
        6  1    1    2  501    0 +1.5635330049e+02 +2.2542484486e+02 -2.3900756426e+03 2.4119811966e+03 1.7300000000e+02 0.0000e+00 -1.0000e+00
       -6  1    1    2    0  503 -3.0211079565e+02 -6.8146232745e+01 -2.6130830511e+02 4.4059717680e+02 1.7300000000e+02 0.0000e+00 -1.0000e+00
       21  1    1    2  504  505 +1.5095884518e+02 -1.1065386149e+02 -1.0246193269e+03 1.0415745845e+03 0.0000000000e+00 0.0000e+00 -1.0000e+00
       21  1    1    2  505  501 -5.2013500197e+00 -4.6624750625e+01 -2.2362658789e+02 2.2849457810e+02 0.0000000000e+00 0.0000e+00 -1.0000e+00
<mgrwt>
<rscale>  4 0.34364809E+03</rscale>
<asrwt>0</asrwt>
<pdfrwt beam="1">  1       21 0.17155202E-01 0.34364809E+03</pdfrwt>
<pdfrwt beam="2">  1       21 0.61709838E+00 0.34364809E+03</pdfrwt>
<totfact> 0.61507856E+00</totfact>
</mgrwt>
</event>
<event>
 6      1 +2.5168241e+02 2.44772600e+02 7.54677100e-03 1.12068800e-01
       21 -1    0    0  504  502 +0.0000000000e+00 +0.0000000000e+00 +2.0233121456e+03 2.0233121456e+03 0.0000000000e+00 0.0000e+00 -1.0000e+00
       21 -1    0    0  502  503 -0.0000000000e+00 -0.0000000000e+00 -6.8036729891e+01 6.8036729891e+01 0.0000000000e+00 0.0000e+00 1.0000e+00
        6  1    1    2  501    0 +8.6212130386e+01 -1.9155647819e+02 +1.1889326160e+03 1.2196787205e+03 1.7300000000e+02 0.0000e+00 -1.0000e+00
       -6  1    1    2    0  505 -2.7395864044e+00 +1.3725989047e+02 +6.6309576562e+02 6.9890827527e+02 1.7300000000e+02 0.0000e+00 1.0000e+00
       21  1    1    2  504  501 -6.9034000448e+01 +7.3808163050e+01 +1.0812769593e+02 1.4800316475e+02 0.0000000000e+00 0.0000e+00 -1.0000e+00
       21  1    1    2  505  503 -1.4438543533e+01 -1.9511575329e+01 -4.8806617915e+00 2.4758715045e+01 0.0000000000e+00 0.0000e+00 1.0000e+00
<mgrwt>
<rscale>  4 0.24477258E+03</rscale>
<asrwt>0</asrwt>
<pdfrwt beam="1">  1       21 0.31127875E+00 0.24477258E+03</pdfrwt>
<pdfrwt beam="2">  1       21 0.10467191E-01 0.24477258E+03</pdfrwt>
<totfact> 0.20720370E+03</totfact>
</mgrwt>
</event>
<event>
 6      1 +2.5168241e+02 3.41350500e+02 7.54677100e-03 1.17132900e-01
       21 -1    0    0  505  502 +0.0000000000e+00 +0.0000000000e+00 +9.6120775920e+02 9.6120775920e+02 0.0000000000e+00 0.0000e+00 1.0000e+00
       21 -1    0    0  504  503 -0.0000000000e+00 -0.0000000000e+00 -4.5268539476e+02 4.5268539476e+02 0.0000000000e+00 0.0000e+00 -1.0000e+00
        6  1    1    2  501    0 +2.2424463563e+00 -3.4678115519e+02 +9.6908361464e+01 3.9947769485e+02 1.7300000000e+02 0.0000e+00 -1.0000e+00
       -6  1    1    2    0  502 -1.0322272667e+02 +2.6265517063e+02 +4.8957354978e+02 5.9097709821e+02 1.7300000000e+02 0.0000e+00 1.0000e+00
       21  1    1    2  504  501 +3.4717016275e+01 -1.0263272706e+02 -1.7263540150e+02 2.0381788374e+02 0.0000000000e+00 0.0000e+00 -1.0000e+00
       21  1    1    2  505  503 +6.6263264036e+01 +1.8675871162e+02 +9.4675854684e+01 2.1962047716e+02 0.0000000000e+00 0.0000e+00 1.0000e+00
<mgrwt>
<rscale>  4 0.34135047E+03</rscale>
<asrwt>0</asrwt>
<pdfrwt beam="1">  1       21 0.14787812E+00 0.34135047E+03</pdfrwt>
<pdfrwt beam="2">  1       21 0.69643907E-01 0.34135047E+03</pdfrwt>
<totfact> 0.51321631E+02</totfact>
</mgrwt>
</event>
<event>
 6      1 +2.5168241e+02 1.78071900e+02 7.54677100e-03 1.04003000e-01
       21 -1    0    0  504  502 +0.0000000000e+00 +0.0000000000e+00 +3.0019738094e+02 3.0019738094e+02 0.0000000000e+00 0.0000e+00 1.0000e+00
       21 -1    0    0  505  503 -0.0000000000e+00 -0.0000000000e+00 -6.9157243314e+02 6.9157243314e+02 0.0000000000e+00 0.0000e+00 -1.0000e+00
        6  1    1    2  501    0 -1.1539719423e+02 -1.9536379978e+01 -1.4411929775e+02 2.5376673257e+02 1.7300000000e+02 0.0000e+00 1.0000e+00
       -6  1    1    2    0  503 -1.2605711963e+01 +4.5627117688e+01 +1.7731958212e+02 2.5221413927e+02 1.7300000000e+02 0.0000e+00 1.0000e+00
       21  1    1    2  504  501 +1.6847786325e+01 -1.2398336660e+01 -3.5136692844e+02 3.5198904111e+02 0.0000000000e+00 0.0000e+00 -1.0000e+00
       21  1    1    2  505  502 +1.1115511987e+02 -1.3692401051e+01 -7.3208408138e+01 1.3379990113e+02 0.0000000000e+00 0.0000e+00 -1.0000e+00
<mgrwt>
<rscale>  4 0.17807191E+03</rscale>
<asrwt>0</asrwt>
<pdfrwt beam="1">  1       21 0.46184213E-01 0.17807191E+03</pdfrwt>
<pdfrwt beam="2">  1       21 0.10639576E+00 0.17807191E+03</pdfrwt>
<totfact> 0.32202635E+03</totfact>
</mgrwt>
</event>
<event>
 6      1 +2.5168241e+02 2.96341900e+02 7.54677100e-03 1.07064900e-01
       21 -1    0    0  501  502 +0.0000000000e+00 +0.0000000000e+00 +5.6985960009e+02 5.6985960009e+02 0.0000000000e+00 0.0000e+00 -1.0000e+00
       21 -1    0    0  504  503 -0.0000000000e+00 -0.0000000000e+00 -6.6400693884e+02 6.6400693884e+02 0.0000000000e+00 0.0000e+00 1.0000e+00
        6  1    1    2  501    0 -2.3998701361e+02 +2.7803896791e+01 +4.5175199504e+01 3.0056051309e+02 1.7300000000e+02 0.0000e+00 -1.0000e+00
       -6  1    1    2    0  503 +2.0449896523e+02 +1.5413828283e+02 -4.1704028470e+02 5.1906650448e+02 1.7300000000e+02 0.0000e+00 1.0000e+00
       21  1    1    2  504  505 +2.7457697984e+01 -2.1915213655e+02 +1.1872506891e+02 2.5075331726e+02 0.0000000000e+00 0.0000e+00 -1.0000e+00
       21  1    1    2  505  502 +8.0303503900e+00 +3.7209956926e+01 +1.5899267753e+02 1.6348620410e+02 0.0000000000e+00 0.0000e+00 -1.0000e+00
<mgrwt>
<rscale>  4 0.29634193E+03</rscale>
<asrwt>0</asrwt>
<pdfrwt beam="1">  1       21 0.87670708E-01 0.29634193E+03</pdfrwt>
<pdfrwt beam="2">  1       21 0.10215491E+00 0.29634193E+03</pdfrwt>
<totfact> 0.79826404E+02</totfact>
</mgrwt>
</event>
<event>
 6      1 +2.5168241e+02 2.28876100e+02 7.54677100e-03 1.17392200e-01
       21 -1    0    0  504  502 +0.0000000000e+00 +0.0000000000e+00 +2.8444945549e+02 2.8444945549e+02 0.0000000000e+00 0.0000e+00 1.0000e+00
       21 -1    0    0  501  503 -0.0000000000e+00 -0.0000000000e+00 -3.9293375348e+02 3.9293375348e+02 0.0000000000e+00 0.0000e+00 -1.0000e+00
        6  1    1    2  501    0 +1.0759964502e+02 +1.4554210971e+02 +1.1540924045e+02 2.7569635850e+02 1.7300000000e+02 0.0000e+00 1.0000e+00
       -6  1    1    2    0  502 -2.1239045524e+01 -1.1784098928e+02 -1.3585905152e+02 2.5044815370e+02 1.7300000000e+02 0.0000e+00 -1.0000e+00
       21  1    1    2  504  505 -5.6557949733e+01 -1.8167250405e+01 -1.0115554925e+02 1.1730854960e+02 0.0000000000e+00 0.0000e+00 1.0000e+00
       21  1    1    2  505  503 -2.9802649760e+01 -9.5338700246e+00 +1.3121062329e+01 3.3930147171e+01 0.0000000000e+00 0.0000e+00 1.0000e+00
<mgrwt>
<rscale>  4 0.22887607E+03</rscale>
<asrwt>0</asrwt>
<pdfrwt beam="1">  1       21 0.43761455E-01 0.22887607E+03</pdfrwt>
<pdfrwt beam="2">  1       21 0.60451346E-01 0.22887607E+03</pdfrwt>
<totfact> 0.12506369E+04</totfact>
</mgrwt>
</event>
<event>
 6      1 +2.5168241e+02 1.77200900e+02 7.54677100e-03 1.06249800e-01
       21 -1    0    0  504  502 +0.0000000000e+00 +0.0000000000e+00 +2.6146339782e+01 2.6146339782e+01 0.0000000000e+00 0.0000e+00 -1.0000e+00
       21 -1    0    0  502  503 -0.0000000000e+00 -0.0000000000e+00 -1.6592227573e+03 1.6592227573e+03 0.0000000000e+00 0.0000e+00 -1.0000e+00
        6  1    1    2  501    0 +3.8792077725e+01 +4.4948710671e+01 -8.6676306565e+02 8.8585124251e+02 1.7300000000e+02 0.0000e+00 -1.0000e+00
       -6  1    1    2    0  503 -1.6843283534e+01 -1.8202935487e+00 -6.4932054420e+02 6.7218537531e+02 1.7300000000e+02 0.0000e+00 -1.0000e+00
       21  1    1    2  504  505 -1.0719984681e+01 -1.8145046025e+01 -6.8141461850e+01 7.1326149412e+01 0.0000000000e+00 0.0000e+00 -1.0000e+00
       21  1    1    2  505  501 -1.1228809510e+01 -2.4983371097e+01 -4.8851345830e+01 5.6006329854e+01 0.0000000000e+00 0.0000e+00 -1.0000e+00
<mgrwt>
<rscale>  4 0.17720089E+03</rscale>
<asrwt>0</asrwt>
<pdfrwt beam="1">  1       21 0.40225136E-02 0.17720089E+03</pdfrwt>
<pdfrwt beam="2">  1       21 0.25526505E+00 0.17720089E+03</pdfrwt>
<totfact> 0.24372430E+04</totfact>
</mgrwt>
</event>
<event>
 6      1 +2.5168241e+02 2.57892600e+02 7.54677100e-03 1.07064900e-01
       21 -1    0    0  504  502 +0.0000000000e+00 +0.0000000000e+00 +3.5482445244e+02 3.5482445244e+02 0.0000000000e+00 0.0000e+00 1.0000e+00
       21 -1    0    0  501  503 -0.0000000000e+00 -0.0000000000e+00 -2.0392602377e+03 2.0392602377e+03 0.0000000000e+00 0.0000e+00 -1.0000e+00
        6  1    1    2  501    0 -7.5303106061e+01 +9.2513418559e+00 -1.3212251752e+03 1.3346614210e+03 1.7300000000e+02 0.0000e+00 -1.0000e+00
       -6  1    1    2    0  505 -1.1531687553e+02 -7.2544297627e+01 -6.4590299549e+02 6.8240774943e+02 1.7300000000e+02 0.0000e+00 -1.0000e+00
       21  1    1    2  504  503 +6.2188788901e+01 -2.7478068133e+01 +2.0045037297e+01 7.0882248931e+01 0.0000000000e+00 0.0000e+00 -1.0000e+00
       21  1    1    2  505  502 +1.2843119269e+02 +9.0771023904e+01 +2.6264734810e+02 3.0613327082e+02 0.0000000000e+00 0.0000e+00 1.0000e+00
<mgrwt>
<rscale>  4 0.23840545E+03</rscale>
<asrwt>0</asrwt>
<pdfrwt beam="1">  1       21 0.54588379E-01 0.25789255E+03</pdfrwt>
<pdfrwt beam="2">  1       21 0.31373234E+00 0.25789255E+03</pdfrwt>
<totfact> 0.81975272E+01</totfact>
</mgrwt>
</event>
<event>
 6      1 +2.5168241e+02 1.75914300e+02 7.54677100e-03 1.17392200e-01
       21 -1    0    0  504  502 +0.0000000000e+00 +0.0000000000e+00 +5.2667218041e+02 5.2667218041e+02 0.0000000000e+00 0.0000e+00 -1.0000e+00
       21 -1    0    0  501  503 -0.0000000000e+00 -0.0000000000e+00 -1.6270058190e+02 1.6270058190e+02 0.0000000000e+00 0.0000e+00 -1.0000e+00
        6  1    1    2  501    0 +4.6083758990e+01 +5.9577799265e+01 +4.3321771326e+01 1.9359494539e+02 1.7300000000e+02 0.0000e+00 1.0000e+00
       -6  1    1    2    0  502 -4.5258104679e+01 +4.7222365459e+01 +3.0090920101e+02 3.5320474953e+02 1.7300000000e+02 0.0000e+00 1.0000e+00
       21  1    1    2  504  505 -3.4909878877e+01 -7.8749980186e+01 -1.3661351428e+01 8.7217495638e+01 0.0000000000e+00 0.0000e+00 -1.0000e+00
       21  1    1    2  505  503 +3.4084224567e+01 -2.8050184538e+01 +3.3401977600e+01 5.5355571757e+01 0.0000000000e+00 0.0000e+00 1.0000e+00
<mgrwt>
<rscale>  4 0.17591426E+03</rscale>
<asrwt>0</asrwt>
<pdfrwt beam="1">  1       21 0.81026488E-01 0.17591426E+03</pdfrwt>
<pdfrwt beam="2">  1       21 0.25030859E-01 0.17591426E+03</pdfrwt>
<totfact> 0.20398943E+04</totfact>
</mgrwt>
</event>
<event>
 6      1 +2.5168241e+02 2.41437400e+02 7.54677100e-03 1.07064900e-01
       21 -1    0    0  505  502 +0.0000000000e+00 +0.0000000000e+00 +1.2955465550e+03 1.2955465550e+03 0.0000000000e+00 0.0000e+00 1.0000e+00
       21 -1    0    0  504  503 -0.0000000000e+00 -0.0000000000e+00 -2.2494093160e+02 2.2494093160e+02 0.0000000000e+00 0.0000e+00 1.0000e+00
        6  1    1    2  501    0 +9.5650174565e+01 -5.4680671723e+01 +3.1146775657e+02 3.7293443813e+02 1.7300000000e+02 0.0000e+00 1.0000e+00
       -6  1    1    2    0  503 +5.9496387198e+01 -2.9993341007e+01 -1.2337501429e+02 2.2268770677e+02 1.7300000000e+02 0.0000e+00 1.0000e+00
       21  1    1    2  504  502 +3.9871236678e+01 -5.6298401373e-01 +3.3624260716e+02 3.3859876452e+02 0.0000000000e+00 0.0000e+00 1.0000e+00
       21  1    1    2  505  501 -1.9501779844e+02 +8.5236996744e+01 +5.4627027394e+02 5.8626657718e+02 0.0000000000e+00 0.0000e+00 1.0000e+00
<mgrwt>
<rscale>  4 0.22621415E+03</rscale>
<asrwt>0</asrwt>
<pdfrwt beam="1">  1       21 0.19931485E+00 0.24143737E+03</pdfrwt>
<pdfrwt beam="2">  1       21 0.34606298E-01 0.24143737E+03</pdfrwt>
<totfact> 0.10387863E+03</totfact>
</mgrwt>
</event>
<event>
 6      1 +2.5168241e+02 2.32773200e+02 7.54677100e-03 9.87464100e-02
       21 -1    0    0  503  502 +0.0000000000e+00 +0.0000000000e+00 +1.2637935620e+03 1.2637935620e+03 0.0000000000e+00 0.0000e+00 -1.0000e+00
       21 -1    0    0  505  503 -0.0000000000e+00 -0.0000000000e+00 -8.2326192690e+01 8.2326192690e+01 0.0000000000e+00 0.0000e+00 -1.0000e+00
        6  1    1    2  501    0 -1.7349542456e+02 -8.9614682479e+01 +4.6728565213e+02 5.3517878727e+02 1.7300000000e+02 0.0000e+00 -1.0000e+00
       -6  1    1    2    0  504 +1.1957811642e+02 +6.3884845404e+01 +6.8002241029e+02 7.1466053332e+02 1.7300000000e+02 0.0000e+00 1.0000e+00
       21  1    1    2  504  502 +2.3881411163e+01 +2.2683554595e+01 +5.1747633045e+01 6.1340712206e+01 0.0000000000e+00 0.0000e+00 -1.0000e+00
       21  1    1    2  505  501 +3.0035896970e+01 +3.0462824805e+00 -1.7588326199e+01 3.4939721840e+01 0.0000000000e+00 0.0000e+00 -1.0000e+00
<mgrwt>
<rscale>  4 0.23277318E+03</rscale>
<asrwt>0</asrwt>
<pdfrwt beam="1">  1       21 0.19442977E+00 0.23277318E+03</pdfrwt>
<pdfrwt beam="2">  1       21 0.12665569E-01 0.23277318E+03</pdfrwt>
<totfact> 0.75224694E+03</totfact>
</mgrwt>
</event>
<event>
 6      1 +2.5168241e+02 2.75776500e+02 7.54677100e-03 1.11910500e-01
       21 -1    0    0  501  502 +0.0000000000e+00 +0.0000000000e+00 +3.1339420768e+02 3.1339420768e+02 0.0000000000e+00 0.0000e+00 -1.0000e+00
       21 -1    0    0  504  503 -0.0000000000e+00 -0.0000000000e+00 -1.9325617635e+03 1.9325617635e+03 0.0000000000e+00 0.0000e+00 1.0000e+00
        6  1    1    2  501    0 +2.2881812685e+02 -1.4198571322e+01 +1.7267909397e+02 3.3512147663e+02 1.7300000000e+02 0.0000e+00 -1.0000e+00
       -6  1    1    2    0  503 -1.5217429472e+02 -6.8853336914e+00 -3.1660949829e+02 3.9163120177e+02 1.7300000000e+02 0.0000e+00 -1.0000e+00
       21  1    1    2  504  505 +7.3275723612e+01 +6.0174008358e+01 -1.1969111185e+03 1.2006608466e+03 0.0000000000e+00 0.0000e+00 1.0000e+00
       21  1    1    2  505  502 -1.4991955575e+02 -3.9090103344e+01 -2.7832603296e+02 3.1854244615e+02 0.0000000000e+00 0.0000e+00 1.0000e+00
<mgrwt>
<rscale>  4 0.27577649E+03</rscale>
<asrwt>0</asrwt>
<pdfrwt beam="1">  1       21 0.48214493E-01 0.27577649E+03</pdfrwt>
<pdfrwt beam="2">  1       21 0.29731720E+00 0.27577649E+03</pdfrwt>
<totfact> 0.13017570E+02</totfact>
</mgrwt>
</event>
<event>
 6      1 +2.5168241e+02 4.67838200e+02 7.54677100e-03 1.17132900e-01
       21 -1    0    0  505  502 +0.0000000000e+00 +0.0000000000e+00 +6.8671771129e+02 6.8671771129e+02 0.0000000000e+00 0.0000e+00 -1.0000e+00
       21 -1    0    0  504  503 -0.0000000000e+00 -0.0000000000e+00 -8.5880953956e+02 8.5880953956e+02 0.0000000000e+00 0.0000e+00 -1.0000e+00
        6  1    1    2  501    0 -2.6421728900e+01 +1.8373253769e+02 -1.4918749149e+02 2.9434955543e+02 1.7300000000e+02 0.0000e+00 -1.0000e+00
       -6  1    1    2    0  502 +7.9779123142e+01 -4.9508605479e+02 +2.0149326189e+02 5.6745347362e+02 1.7300000000e+02 0.0000e+00 -1.0000e+00
       21  1    1    2  504  501 -6.7697514320e-01 -6.2274859398e+01 -2.9357769256e+02 3.0011077617e+02 0.0000000000e+00 0.0000e+00 -1.0000e+00
       21  1    1    2  505  503 -5.2680419099e+01 +3.7362837650e+02 +6.9180093888e+01 3.8361344563e+02 0.0000000000e+00 0.0000e+00 -1.0000e+00
<mgrwt>
<rscale>  4 0.39451940E+03</rscale>
<asrwt>0</asrwt>
<pdfrwt beam="1">  1       21 0.10564888E+00 0.46783822E+03</pdfrwt>
<pdfrwt beam="2">  1       21 0.13212454E+00 0.46783822E+03</pdfrwt>
<totfact> 0.24328301E+02</totfact>
</mgrwt>
</event>
<event>
 6      1 +2.5168241e+02 2.72615600e+02 7.54677100e-03 1.05831300e-01
       21 -1    0    0  504  502 +0.0000000000e+00 +0.0000000000e+00 +1.6425365338e+03 1.6425365338e+03 0.0000000000e+00 0.0000e+00 -1.0000e+00
       21 -1    0    0  501  503 -0.0000000000e+00 -0.0000000000e+00 -4.5274960682e+02 4.5274960682e+02 0.0000000000e+00 0.0000e+00 -1.0000e+00
        6  1    1    2  501    0 +2.4641491320e+01 +2.3577516277e+02 -1.3391351526e+02 3.2258171065e+02 1.7300000000e+02 0.0000e+00 -1.0000e+00
       -6  1    1    2    0  505 -4.8431369194e+01 -1.8390907432e+02 -1.3602020190e+02 2.9085845435e+02 1.7300000000e+02 0.0000e+00 -1.0000e+00
       21  1    1    2  504  503 +3.9504962342e-01 -4.6683391794e+01 +3.8745602756e+01 6.0668911862e+01 0.0000000000e+00 0.0000e+00 -1.0000e+00
       21  1    1    2  505  502 +2.3394828251e+01 -5.1826966575e+00 +1.4209750414e+03 1.4211770637e+03 0.0000000000e+00 0.0000e+00 -1.0000e+00
<mgrwt>
<rscale>  4 0.27261558E+03</rscale>
<asrwt>0</asrwt>
<pdfrwt beam="1">  1       21 0.25269793E+00 0.27261558E+03</pdfrwt>
<pdfrwt beam="2">  1       21 0.69653786E-01 0.27261558E+03</pdfrwt>
<totfact> 0.10843073E+02</totfact>
</mgrwt>
</event>
<event>
 6      1 +2.5168241e+02 1.74454700e+02 7.54677100e-03 1.17132900e-01
       21 -1    0    0  505  502 +0.0000000000e+00 +0.0000000000e+00 +2.5698670526e+02 2.5698670526e+02 0.0000000000e+00 0.0000e+00 1.0000e+00
       21 -1    0    0  504  503 -0.0000000000e+00 -0.0000000000e+00 -1.3568978478e+03 1.3568978478e+03 0.0000000000e+00 0.0000e+00 1.0000e+00
        6  1    1    2  501    0 -2.2928654014e+01 -1.6539761806e+01 +8.9174464954e+01 1.9667326228e+02 1.7300000000e+02 0.0000e+00 1.0000e+00
       -6  1    1    2    0  502 +2.1158892849e+01 -1.3028452522e+01 +3.7399355829e+01 1.7873206522e+02 1.7300000000e+02 0.0000e+00 1.0000e+00
       21  1    1    2  504  501 +2.2802631252e+01 +3.6673318592e+00 -1.1850751816e+03 1.1853002131e+03 0.0000000000e+00 0.0000e+00 1.0000e+00
       21  1    1    2  505  503 -2.1032870087e+01 +2.5900882469e+01 -4.1409781751e+01 5.3179012415e+01 0.0000000000e+00 0.0000e+00 -1.0000e+00
<mgrwt>
<rscale>  4 0.17445466E+03</rscale>
<asrwt>0</asrwt>
<pdfrwt beam="1">  1       21 0.39536417E-01 0.17445466E+03</pdfrwt>
<pdfrwt beam="2">  1       21 0.20875351E+00 0.17445466E+03</pdfrwt>
<totfact> 0.74523572E+02</totfact>
</mgrwt>
</event>
<event>
 6      1 +2.5168241e+02 2.71115400e+02 7.54677100e-03 1.11671100e-01
       21 -1    0    0  503  502 +0.0000000000e+00 +0.0000000000e+00 +6.8934654996e+01 6.8934654996e+01 0.0000000000e+00 0.0000e+00 -1.0000e+00
       21 -1    0    0  501  503 -0.0000000000e+00 -0.0000000000e+00 -1.4616667978e+03 1.4616667978e+03 0.0000000000e+00 0.0000e+00 1.0000e+00
        6  1    1    2  501    0 -1.8198713688e+02 -1.5756202221e+02 -5.7999945403e+02 6.5136278333e+02 1.7300000000e+02 0.0000e+00 -1.0000e+00
       -6  1    1    2    0  504 +1.3279788097e+02 +1.3553445069e+02 -7.4488982980e+02 7.8790527543e+02 1.7300000000e+02 0.0000e+00 -1.0000e+00
       21  1    1    2  504  505 +3.6325242581e+01 +8.0822449089e-01 -4.0250839093e+01 5.4224593341e+01 0.0000000000e+00 0.0000e+00 -1.0000e+00
       21  1    1    2  505  502 +1.2864013328e+01 +2.1219347022e+01 -2.7592019848e+01 3.7108800657e+01 0.0000000000e+00 0.0000e+00 -1.0000e+00
<mgrwt>
<rscale>  4 0.27111536E+03</rscale>
<asrwt>0</asrwt>
<pdfrwt beam="1">  1       21 0.10605332E-01 0.27111536E+03</pdfrwt>
<pdfrwt beam="2">  1       21 0.22487180E+00 0.27111536E+03</pdfrwt>
<totfact> 0.64465550E+03</totfact>
</mgrwt>
</event>
<event>
 6      1 +2.5168241e+02 2.16938500e+02 7.54677100e-03 1.16820100e-01
       21 -1    0    0  501  502 +0.0000000000e+00 +0.0000000000e+00 +4.5493312438e+02 4.5493312438e+02 0.0000000000e+00 0.0000e+00 1.0000e+00
       21 -1    0    0  504  503 -0.0000000000e+00 -0.0000000000e+00 -2.4119690161e+02 2.4119690161e+02 0.0000000000e+00 0.0000e+00 1.0000e+00
        6  1    1    2  501    0 -1.2884674059e+02 +1.0173138743e+02 +2.0645293622e+02 3.1544028376e+02 1.7300000000e+02 0.0000e+00 1.0000e+00
       -6  1    1    2    0  503 +1.1075584530e+01 -1.1678213594e+02 +3.2399014322e+01 2.1151697798e+02 1.7300000000e+02 0.0000e+00 1.0000e+00
       21  1    1    2  504  505 +5.6648232881e+01 -5.1638447095e+00 -7.0365753542e+01 9.0482190802e+01 0.0000000000e+00 0.0000e+00 1.0000e+00
       21  1    1    2  505  502 +6.1122923176e+01 +2.0214593214e+01 +4.5250025768e+01 7.8690573441e+01 0.0000000000e+00 0.0000e+00 1.0000e+00
<mgrwt>
<rscale>  4 0.21693855E+03</rscale>
<asrwt>0</asrwt>
<pdfrwt beam="1">  1       21 0.69989711E-01 0.21693855E+03</pdfrwt>
<pdfrwt beam="2">  1       21 0.37107216E-01 0.21693855E+03</pdfrwt>
<totfact> 0.12781198E+04</totfact>
</mgrwt>
</event>
<event>
 6      1 +2.5168241e+02 1.74840700e+02 7.54677100e-03 1.17132900e-01
       21 -1    0    0  505  502 +0.0000000000e+00 +0.0000000000e+00 +7.3939667429e+01 7.3939667429e+01 0.0000000000e+00 0.0000e+00 1.0000e+00
       21 -1    0    0  504  503 -0.0000000000e+00 -0.0000000000e+00 -4.5691548488e+03 4.5691548488e+03 0.0000000000e+00 0.0000e+00 1.0000e+00
        6  1    1    2  501    0 +9.7255176100e+00 -8.4658341744e+01 -1.3064282238e+02 2.3293382657e+02 1.7300000000e+02 0.0000e+00 1.0000e+00
       -6  1    1    2    0  502 +2.9478232150e+01 +2.7648497832e+00 -7.7207889261e+02 7.9177738474e+02 1.7300000000e+02 0.0000e+00 1.0000e+00
       21  1    1    2  504  501 -6.5655806853e+01 +6.8841282990e+00 -3.4799237380e+03 3.4805498557e+03 0.0000000000e+00 0.0000e+00 1.0000e+00
       21  1    1    2  505  503 +2.6452057093e+01 +7.5009363662e+01 -1.1256972843e+02 1.3783344921e+02 0.0000000000e+00 0.0000e+00 1.0000e+00
<mgrwt>
<rscale>  4 0.17484070E+03</rscale>
<asrwt>0</asrwt>
<pdfrwt beam="1">  1       21 0.11375329E-01 0.17484070E+03</pdfrwt>
<pdfrwt beam="2">  1       21 0.70294718E+00 0.17484070E+03</pdfrwt>
<totfact> 0.31168125E+00</totfact>
</mgrwt>
</event>
<event>
 6      1 +2.5168241e+02 1.88652000e+02 7.54677100e-03 1.09842800e-01
       21 -1    0    0  503  502 +0.0000000000e+00 +0.0000000000e+00 +4.6054276143e+02 4.6054276143e+02 0.0000000000e+00 0.0000e+00 1.0000e+00
       21 -1    0    0  501  503 -0.0000000000e+00 -0.0000000000e+00 -3.4214686921e+02 3.4214686921e+02 0.0000000000e+00 0.0000e+00 -1.0000e+00
        6  1    1    2  501    0 +7.0236032159e+01 -3.0401574625e+01 -2.2989491094e+02 2.9772138994e+02 1.7300000000e+02 0.0000e+00 -1.0000e+00
       -6  1    1    2    0  504 -3.2723917866e+01 +8.5624918079e+01 +1.0535637243e+02 2.2233183894e+02 1.7300000000e+02 0.0000e+00 1.0000e+00
       21  1    1    2  504  505 -6.8751138463e+01 -5.6620472181e+01 +9.0305906360e+01 1.2683750878e+02 0.0000000000e+00 0.0000e+00 1.0000e+00
       21  1    1    2  505  502 +3.1239024169e+01 +1.3971287267e+00 +1.5262852437e+02 1.5579889297e+02 0.0000000000e+00 0.0000e+00 1.0000e+00
<mgrwt>
<rscale>  4 0.18865205E+03</rscale>
<asrwt>0</asrwt>
<pdfrwt beam="1">  1       21 0.70852732E-01 0.18865205E+03</pdfrwt>
<pdfrwt beam="2">  1       21 0.52637980E-01 0.18865205E+03</pdfrwt>
<totfact> 0.61915097E+03</totfact>
</mgrwt>
</event>
<event>
 6      1 +2.5168241e+02 1.93173700e+02 7.54677100e-03 1.11910500e-01
       21 -1    0    0  501  502 +0.0000000000e+00 +0.0000000000e+00 +4.2455916910e+02 4.2455916910e+02 0.0000000000e+00 0.0000e+00 1.0000e+00
       21 -1    0    0  505  503 -0.0000000000e+00 -0.0000000000e+00 -4.9970636543e+02 4.9970636543e+02 0.0000000000e+00 0.0000e+00 -1.0000e+00
        6  1    1    2  501    0 -6.8813439677e+01 -6.0843958532e+01 +2.7539868455e+02 3.3795075414e+02 1.7300000000e+02 0.0000e+00 1.0000e+00
       -6  1    1    2    0  504 -4.8459925744e+01 +1.2228784312e+02 -1.3149299162e+01 2.1772594022e+02 1.7300000000e+02 0.0000e+00 1.0000e+00
       21  1    1    2  504  503 +2.9947610918e+01 -4.4702950282e+01 -8.1276720155e+01 9.7473680565e+01 0.0000000000e+00 0.0000e+00 -1.0000e+00
       21  1    1    2  505  502 +8.7325754503e+01 -1.6740934302e+01 -2.5611986157e+02 2.7111515961e+02 0.0000000000e+00 0.0000e+00 -1.0000e+00
<mgrwt>
<rscale>  4 0.19317374E+03</rscale>
<asrwt>0</asrwt>
<pdfrwt beam="1">  1       21 0.65316795E-01 0.19317374E+03</pdfrwt>
<pdfrwt beam="2">  1       21 0.76877902E-01 0.19317374E+03</pdfrwt>
<totfact> 0.32429350E+03</totfact>
</mgrwt>
</event>
<event>
 6      1 +2.5168241e+02 1.86250600e+02 7.54677100e-03 1.12989000e-01
       21 -1    0    0  503  502 +0.0000000000e+00 +0.0000000000e+00 +1.2791109786e+03 1.2791109786e+03 0.0000000000e+00 0.0000e+00 -1.0000e+00
       21 -1    0    0  501  503 -0.0000000000e+00 -0.0000000000e+00 -1.2742837253e+02 1.2742837253e+02 0.0000000000e+00 0.0000e+00 -1.0000e+00
        6  1    1    2  501    0 -6.7315050274e+01 -8.2369450707e+01 +9.1577698640e+02 9.3802586916e+02 1.7300000000e+02 0.0000e+00 1.0000e+00
       -6  1    1    2    0  504 -4.0022010582e+01 -4.2477114348e+01 +1.8234061916e+02 2.5803714455e+02 1.7300000000e+02 0.0000e+00 -1.0000e+00
       21  1    1    2  504  505 +8.1458581892e+01 +8.3399017789e+01 +9.1837906613e+01 1.4840855037e+02 0.0000000000e+00 0.0000e+00 -1.0000e+00
       21  1    1    2  505  502 +2.5878478964e+01 +4.1447547267e+01 -3.8272906093e+01 6.2067787045e+01 0.0000000000e+00 0.0000e+00 -1.0000e+00
<mgrwt>
<rscale>  4 0.18625060E+03</rscale>
<asrwt>0</asrwt>
<pdfrwt beam="1">  1       21 0.19678630E+00 0.18625060E+03</pdfrwt>
<pdfrwt beam="2">  1       21 0.19604366E-01 0.18625060E+03</pdfrwt>
<totfact> 0.33955696E+03</totfact>
</mgrwt>
</event>
<event>
 6      1 +2.5168241e+02 4.19303800e+02 7.54677100e-03 1.17132900e-01
       21 -1    0    0  503  502 +0.0000000000e+00 +0.0000000000e+00 +1.1076951216e+03 1.1076951216e+03 0.0000000000e+00 0.0000e+00 1.0000e+00
       21 -1    0    0  504  503 -0.0000000000e+00 -0.0000000000e+00 -6.2261979392e+02 6.2261979392e+02 0.0000000000e+00 0.0000e+00 -1.0000e+00
        6  1    1    2  501    0 -2.3729465998e+02 -2.2380447646e+02 +3.1343691048e+01 3.7055178627e+02 1.7300000000e+02 0.0000e+00 1.0000e+00
       -6  1    1    2    0  505 +3.3430501868e+02 +2.4377043279e+02 +3.3562260569e+02 5.6013873537e+02 1.7300000000e+02 0.0000e+00 -1.0000e+00
       21  1    1    2  504  501 -5.7823941691e+01 -1.0340642778e+02 -3.2557683556e+02 3.4646323526e+02 0.0000000000e+00 0.0000e+00 -1.0000e+00
       21  1    1    2  505  502 -3.9186417013e+01 +8.3440471451e+01 +4.4368586651e+02 4.5316115863e+02 0.0000000000e+00 0.0000e+00 1.0000e+00
<mgrwt>
<rscale>  4 0.41930382E+03</rscale>
<asrwt>0</asrwt>
<pdfrwt beam="1">  1       21 0.17041463E+00 0.41930382E+03</pdfrwt>
<pdfrwt beam="2">  1       21 0.95787661E-01 0.41930382E+03</pdfrwt>
<totfact> 0.15846759E+02</totfact>
</mgrwt>
</event>
<event>
 6      1 +2.5168241e+02 2.88437000e+02 7.54677100e-03 1.11471900e-01
       21 -1    0    0  503  502 +0.0000000000e+00 +0.0000000000e+00 +5.8622130988e+02 5.8622130988e+02 0.0000000000e+00 0.0000e+00 -1.0000e+00
       21 -1    0    0  501  503 -0.0000000000e+00 -0.0000000000e+00 -1.2575950686e+03 1.2575950686e+03 0.0000000000e+00 0.0000e+00 -1.0000e+00
        6  1    1    2  501    0 +1.5660340610e+02 +1.5351387122e+02 -6.0023901211e+02 6.6204758675e+02 1.7300000000e+02 0.0000e+00 -1.0000e+00
       -6  1    1    2    0  504 -2.0794551215e+02 -1.2845318227e+02 -5.5304707432e+02 6.2891304842e+02 1.7300000000e+02 0.0000e+00 1.0000e+00
       21  1    1    2  504  505 +2.1553404658e+01 +1.0743969299e+01 -3.0201712085e+01 3.8628040871e+01 0.0000000000e+00 0.0000e+00 -1.0000e+00
       21  1    1    2  505  502 +2.9788701388e+01 -3.5804658255e+01 +5.1211403976e+02 5.1422770248e+02 0.0000000000e+00 0.0000e+00 -1.0000e+00
<mgrwt>
<rscale>  4 0.28843696E+03</rscale>
<asrwt>0</asrwt>
<pdfrwt beam="1">  1       21 0.90187895E-01 0.28843696E+03</pdfrwt>
<pdfrwt beam="2">  1       21 0.19347616E+00 0.28843696E+03</pdfrwt>
<totfact> 0.13895571E+02</totfact>
</mgrwt>
</event>
<event>
 6      1 +2.5168241e+02 2.35478100e+02 7.54677100e-03 1.16820100e-01
       21 -1    0    0  504  502 +0.0000000000e+00 +0.0000000000e+00 +8.1392475125e+02 8.1392475125e+02 0.0000000000e+00 0.0000e+00 -1.0000e+00
       21 -1    0    0  501  503 -0.0000000000e+00 -0.0000000000e+00 -5.3746146831e+02 5.3746146831e+02 0.0000000000e+00 0.0000e+00 -1.0000e+00
        6  1    1    2  501    0 -7.9717905094e+01 +1.2210945317e+02 -2.0244076346e+02 3.0360653098e+02 1.7300000000e+02 0.0000e+00 -1.0000e+00
       -6  1    1    2    0  505 +4.9659685718e+01 -1.2941720291e+02 +6.2883660986e+02 6.6676785967e+02 1.7300000000e+02 0.0000e+00 -1.0000e+00
       21  1    1    2  504  503 +5.5396127497e+00 +2.3220189891e+01 -2.6307442905e+02 2.6415529476e+02 0.0000000000e+00 0.0000e+00 -1.0000e+00
       21  1    1    2  505  502 +2.4518606626e+01 -1.5912440148e+01 +1.1314186560e+02 1.1685653415e+02 0.0000000000e+00 0.0000e+00 -1.0000e+00
<mgrwt>
<rscale>  4 0.23547806E+03</rscale>
<asrwt>0</asrwt>
<pdfrwt beam="1">  1       21 0.12521919E+00 0.23547806E+03</pdfrwt>
<pdfrwt beam="2">  1       21 0.82686380E-01 0.23547806E+03</pdfrwt>
<totfact> 0.58037000E+02</totfact>
</mgrwt>
</event>
<event>
 6      1 +2.5168241e+02 1.98674900e+02 7.54677100e-03 1.09842800e-01
       21 -1    0    0  503  502 +0.0000000000e+00 +0.0000000000e+00 +3.0771937387e+02 3.0771937387e+02 0.0000000000e+00 0.0000e+00 -1.0000e+00
       21 -1    0    0  504  503 -0.0000000000e+00 -0.0000000000e+00 -4.8181311038e+02 4.8181311038e+02 0.0000000000e+00 0.0000e+00 -1.0000e+00
        6  1    1    2  501    0 -1.1120734260e+02 +8.7777011244e+01 -1.2316455976e+02 2.5528491051e+02 1.7300000000e+02 0.0000e+00 -1.0000e+00
       -6  1    1    2    0  505 -2.5427744379e+01 -9.3176234947e+01 -1.6855406218e+02 2.6013045346e+02 1.7300000000e+02 0.0000e+00 1.0000e+00
       21  1    1    2  504  501 -1.8937185350e+01 -1.8521103828e+01 -4.2183186447e+01 4.9810335221e+01 0.0000000000e+00 0.0000e+00 1.0000e+00
       21  1    1    2  505  502 +1.5557227233e+02 +2.3920327532e+01 +1.5980807188e+02 2.2430678506e+02 0.0000000000e+00 0.0000e+00 -1.0000e+00
<mgrwt>
<rscale>  4 0.19867490E+03</rscale>
<asrwt>0</asrwt>
<pdfrwt beam="1">  1       21 0.47341442E-01 0.19867490E+03</pdfrwt>
<pdfrwt beam="2">  1       21 0.74125094E-01 0.19867490E+03</pdfrwt>
<totfact> 0.69352140E+03</totfact>
</mgrwt>
</event>
<event>
 6      1 +2.5168241e+02 1.81737000e+02 7.54677100e-03 1.16820100e-01
       21 -1    0    0  505  502 +0.0000000000e+00 +0.0000000000e+00 +1.0770219363e+03 1.0770219363e+03 0.0000000000e+00 0.0000e+00 1.0000e+00
       21 -1    0    0  504  503 -0.0000000000e+00 -0.0000000000e+00 -2.6949165108e+02 2.6949165108e+02 0.0000000000e+00 0.0000e+00 1.0000e+00
        6  1    1    2  501    0 -3.5838753206e+01 +3.2452489352e+01 +6.9907527625e+01 1.9275280209e+02 1.7300000000e+02 0.0000e+00 -1.0000e+00
       -6  1    1    2    0  503 +4.5146345061e+01 -8.0797068342e+00 -1.2900678097e+02 2.2062462163e+02 1.7300000000e+02 0.0000e+00 1.0000e+00
       21  1    1    2  504  502 +2.0922288042e+01 -1.0599824859e+01 -2.8770974045e+01 3.7119635928e+01 0.0000000000e+00 0.0000e+00 1.0000e+00
       21  1    1    2  505  501 -3.0229879897e+01 -1.3772957659e+01 +8.9540051262e+02 8.9601652775e+02 0.0000000000e+00 0.0000e+00 1.0000e+00
<mgrwt>
<rscale>  4 0.18173697E+03</rscale>
<asrwt>0</asrwt>
<pdfrwt beam="1">  1       21 0.16569568E+00 0.18173697E+03</pdfrwt>
<pdfrwt beam="2">  1       21 0.41460255E-01 0.18173697E+03</pdfrwt>
<totfact> 0.12972274E+03</totfact>
</mgrwt>
</event>
<event>
 6      1 +2.5168241e+02 2.01775300e+02 7.54677100e-03 1.16820100e-01
       21 -1    0    0  505  502 +0.0000000000e+00 +0.0000000000e+00 +2.4660316338e+02 2.4660316338e+02 0.0000000000e+00 0.0000e+00 1.0000e+00
       21 -1    0    0  504  503 -0.0000000000e+00 -0.0000000000e+00 -4.3422830321e+02 4.3422830321e+02 0.0000000000e+00 0.0000e+00 1.0000e+00
        6  1    1    2  501    0 -9.7419332652e+00 +5.3397961257e+01 -4.9621697085e+01 1.8798287250e+02 1.7300000000e+02 0.0000e+00 1.0000e+00
       -6  1    1    2    0  503 +7.7420701418e+01 -1.4579756012e+02 -1.1862722356e+01 2.3941724610e+02 1.7300000000e+02 0.0000e+00 1.0000e+00
       21  1    1    2  504  502 -2.5381325660e+01 +4.3241898968e+01 -1.6861331023e+02 1.7591055087e+02 0.0000000000e+00 0.0000e+00 1.0000e+00
       21  1    1    2  505  501 -4.2297442492e+01 +4.9157699900e+01 +4.2472589838e+01 7.7520797134e+01 0.0000000000e+00 0.0000e+00 1.0000e+00
<mgrwt>
<rscale>  4 0.20177530E+03</rscale>
<asrwt>0</asrwt>
<pdfrwt beam="1">  1       21 0.37938948E-01 0.20177530E+03</pdfrwt>
<pdfrwt beam="2">  1       21 0.66804354E-01 0.20177530E+03</pdfrwt>
<totfact> 0.13674667E+04</totfact>
</mgrwt>
</event>
<event>
 6      1 +2.5168241e+02 1.92013800e+02 7.54677100e-03 1.15942100e-01
       21 -1    0    0  504  502 +0.0000000000e+00 +0.0000000000e+00 +9.5189991487e+02 9.5189991487e+02 0.0000000000e+00 0.0000e+00 1.0000e+00
       21 -1    0    0  501  503 -0.0000000000e+00 -0.0000000000e+00 -5.9574554674e+02 5.9574554674e+02 0.0000000000e+00 0.0000e+00 -1.0000e+00
        6  1    1    2  501    0 -1.3287216256e+02 -5.1728533712e+01 -5.2159985415e+02 5.6773784499e+02 1.7300000000e+02 0.0000e+00 -1.0000e+00
       -6  1    1    2    0  502 +8.0393606457e+01 +1.7302662564e+01 +8.9192475822e+02 9.1226163375e+02 1.7300000000e+02 0.0000e+00 1.0000e+00
       21  1    1    2  504  505 +2.7603308540e+01 +1.1682364233e+01 +2.4346165785e+00 3.0072373274e+01 0.0000000000e+00 0.0000e+00 -1.0000e+00
       21  1    1    2  505  503 +2.4875247567e+01 +2.2743506915e+01 -1.6605152506e+01 3.7573609596e+01 0.0000000000e+00 0.0000e+00 -1.0000e+00
<mgrwt>
<rscale>  4 0.19201383E+03</rscale>
<asrwt>0</asrwt>
<pdfrwt beam="1">  1       21 0.14644614E+00 0.19201383E+03</pdfrwt>
<pdfrwt beam="2">  1       21 0.91653161E-01 0.19201383E+03</pdfrwt>
<totfact> 0.32085181E+02</totfact>
</mgrwt>
</event>
<event>
 6      1 +2.5168241e+02 2.01449700e+02 7.54677100e-03 1.16820100e-01
       21 -1    0    0  505  502 +0.0000000000e+00 +0.0000000000e+00 +6.8486687712e+01 6.8486687712e+01 0.0000000000e+00 0.0000e+00 -1.0000e+00
       21 -1    0    0  504  503 -0.0000000000e+00 -0.0000000000e+00 -1.7395396403e+03 1.7395396403e+03 0.0000000000e+00 0.0000e+00 -1.0000e+00
        6  1    1    2  501    0 -9.7265538834e+00 -5.1167433464e+01 -5.9992322595e+02 6.2653777949e+02 1.7300000000e+02 0.0000e+00 -1.0000e+00
       -6  1    1    2    0  503 -1.4546111610e+01 +1.6354557781e+02 -8.7891253469e+02 9.1070027397e+02 1.7300000000e+02 0.0000e+00 -1.0000e+00
       21  1    1    2  504  502 +3.8678801110e+01 -2.6533518042e+00 -1.4565307219e+02 1.5072460771e+02 0.0000000000e+00 0.0000e+00 -1.0000e+00
       21  1    1    2  505  501 -1.4406135616e+01 -1.0972479255e+02 -4.6564119749e+01 1.2006366682e+02 0.0000000000e+00 0.0000e+00 -1.0000e+00
<mgrwt>
<rscale>  4 0.20144975E+03</rscale>
<asrwt>0</asrwt>
<pdfrwt beam="1">  1       21 0.10536415E-01 0.20144975E+03</pdfrwt>
<pdfrwt beam="2">  1       21 0.26762145E+00 0.20144975E+03</pdfrwt>
<totfact> 0.38447433E+03</totfact>
</mgrwt>
</event>
<event>
 6      1 +2.5168241e+02 1.84575100e+02 7.54677100e-03 1.05831300e-01
       21 -1    0    0  504  502 +0.0000000000e+00 +0.0000000000e+00 +3.0508806971e+02 3.0508806971e+02 0.0000000000e+00 0.0000e+00 1.0000e+00
       21 -1    0    0  501  503 -0.0000000000e+00 -0.0000000000e+00 -2.9937320631e+02 2.9937320631e+02 0.0000000000e+00 0.0000e+00 1.0000e+00
        6  1    1    2  501    0 +3.2269101322e+01 -1.6651440517e+01 +6.5509010524e+01 1.8851789260e+02 1.7300000000e+02 0.0000e+00 1.0000e+00
       -6  1    1    2    0  505 +1.1596131862e+02 -4.3370090129e+01 -7.5011204218e+01 2.2557409624e+02 1.7300000000e+02 0.0000e+00 1.0000e+00
       21  1    1    2  504  503 -9.4238844225e-01 -2.0517021162e+01 +8.8909662165e+00 2.2380472148e+01 0.0000000000e+00 0.0000e+00 1.0000e+00
       21  1    1    2  505  502 -1.4728803150e+02 +8.0538551807e+01 +6.3260908769e+00 1.6798881503e+02 0.0000000000e+00 0.0000e+00 1.0000e+00
<mgrwt>
<rscale>  4 0.18457512E+03</rscale>
<asrwt>0</asrwt>
<pdfrwt beam="1">  1       21 0.46936626E-01 0.18457512E+03</pdfrwt>
<pdfrwt beam="2">  1       21 0.46057416E-01 0.18457512E+03</pdfrwt>
<totfact> 0.19721983E+04</totfact>
</mgrwt>
</event>
<event>
 6      1 +2.5168241e+02 2.10718000e+02 7.54677100e-03 1.17132900e-01
       21 -1    0    0  505  502 +0.0000000000e+00 +0.0000000000e+00 +3.0541484264e+01 3.0541484264e+01 0.0000000000e+00 0.0000e+00 -1.0000e+00
       21 -1    0    0  504  503 -0.0000000000e+00 -0.0000000000e+00 -2.9501948052e+03 2.9501948052e+03 0.0000000000e+00 0.0000e+00 -1.0000e+00
        6  1    1    2  501    0 -1.0438365265e+02 -2.9769108469e+01 -1.3357746873e+03 1.3512975846e+03 1.7300000000e+02 0.0000e+00 -1.0000e+00
       -6  1    1    2    0  502 +1.0423963522e+02 +5.7857928874e+01 -5.7374098190e+02 6.1100012749e+02 1.7300000000e+02 0.0000e+00 -1.0000e+00
       21  1    1    2  504  501 -2.5361539322e+01 -4.0713794418e+00 -9.3690812641e+02 9.3726016727e+02 0.0000000000e+00 0.0000e+00 1.0000e+00
       21  1    1    2  505  503 +2.5505556752e+01 -2.4017440964e+01 -7.3229525230e+01 8.1178410067e+01 0.0000000000e+00 0.0000e+00 1.0000e+00
<mgrwt>
<rscale>  4 0.21071804E+03</rscale>
<asrwt>0</asrwt>
<pdfrwt beam="1">  1       21 0.46986893E-02 0.21071804E+03</pdfrwt>
<pdfrwt beam="2">  1       21 0.45387618E+00 0.21071804E+03</pdfrwt>
<totfact> 0.11403308E+03</totfact>
</mgrwt>
</event>
<event>
 6      1 +2.5168241e+02 1.82988400e+02 7.54677100e-03 1.15942100e-01
       21 -1    0    0  503  502 +0.0000000000e+00 +0.0000000000e+00 +5.4483223241e+02 5.4483223241e+02 0.0000000000e+00 0.0000e+00 1.0000e+00
       21 -1    0    0  501  503 -0.0000000000e+00 -0.0000000000e+00 -9.1904972377e+01 9.1904972377e+01 0.0000000000e+00 0.0000e+00 1.0000e+00
        6  1    1    2  501    0 -8.4626911029e+01 -9.4999073492e+00 +1.2622922524e+02 2.3046643924e+02 1.7300000000e+02 0.0000e+00 1.0000e+00
       -6  1    1    2    0  505 +4.5678258853e+01 -2.1098610181e+01 +2.8697606388e+02 3.3884497329e+02 1.7300000000e+02 0.0000e+00 1.0000e+00
       21  1    1    2  504  502 +1.0753683945e+01 +2.1713824653e+01 +2.3267161623e+01 3.3593045552e+01 0.0000000000e+00 0.0000e+00 1.0000e+00
       21  1    1    2  505  504 +2.8194968231e+01 +8.8846928764e+00 +1.6454809292e+01 3.3832746709e+01 0.0000000000e+00 0.0000e+00 1.0000e+00
<mgrwt>
<rscale>  4 0.18298842E+03</rscale>
<asrwt>0</asrwt>
<pdfrwt beam="1">  1       21 0.83820342E-01 0.18298842E+03</pdfrwt>
<pdfrwt beam="2">  1       21 0.14139227E-01 0.18298842E+03</pdfrwt>
<totfact> 0.54278308E+04</totfact>
</mgrwt>
</event>
<event>
 6      1 +2.5168241e+02 2.02103000e+02 7.54677100e-03 1.17132900e-01
       21 -1    0    0  505  502 +0.0000000000e+00 +0.0000000000e+00 +2.6039141740e+02 2.6039141740e+02 0.0000000000e+00 0.0000e+00 -1.0000e+00
       21 -1    0    0  504  503 -0.0000000000e+00 -0.0000000000e+00 -2.9365157451e+02 2.9365157451e+02 0.0000000000e+00 0.0000e+00 -1.0000e+00
        6  1    1    2  501    0 +3.9793434450e+01 -9.5272870508e+01 -5.7226227942e+01 2.0943800621e+02 1.7300000000e+02 0.0000e+00 -1.0000e+00
       -6  1    1    2    0  502 -4.7712386893e+01 +9.9200057017e+01 -2.7917573519e+01 2.0694326296e+02 1.7300000000e+02 0.0000e+00 -1.0000e+00
       21  1    1    2  504  501 -1.8307079009e+01 +1.2405825749e+01 -3.7252924040e+01 4.3322442266e+01 0.0000000000e+00 0.0000e+00 -1.0000e+00
       21  1    1    2  505  503 +2.6226031452e+01 -1.6333012259e+01 +8.9136568389e+01 9.4339280468e+01 0.0000000000e+00 0.0000e+00 -1.0000e+00
<mgrwt>
<rscale>  4 0.20210300E+03</rscale>
<asrwt>0</asrwt>
<pdfrwt beam="1">  1       21 0.40060218E-01 0.20210300E+03</pdfrwt>
<pdfrwt beam="2">  1       21 0.45177165E-01 0.20210300E+03</pdfrwt>
<totfact> 0.28079203E+04</totfact>
</mgrwt>
</event>
<event>
 6      1 +2.5168241e+02 2.51473900e+02 7.54677100e-03 1.17132900e-01
       21 -1    0    0  505  502 +0.0000000000e+00 +0.0000000000e+00 +1.4771038560e+02 1.4771038560e+02 0.0000000000e+00 0.0000e+00 1.0000e+00
       21 -1    0    0  504  503 -0.0000000000e+00 -0.0000000000e+00 -1.0761784292e+03 1.0761784292e+03 0.0000000000e+00 0.0000e+00 1.0000e+00
        6  1    1    2  501    0 -1.3924253766e+02 +1.1993510572e+02 -2.5667983849e+02 3.5998118474e+02 1.7300000000e+02 0.0000e+00 1.0000e+00
       -6  1    1    2    0  502 +1.3297776041e+02 -1.3473502873e+02 -1.3555329129e+02 2.9006948738e+02 1.7300000000e+02 0.0000e+00 1.0000e+00
       21  1    1    2  504  501 -1.2382367320e+01 -3.9416459003e+01 -5.0845171808e+02 5.1012756236e+02 0.0000000000e+00 0.0000e+00 -1.0000e+00
       21  1    1    2  505  503 +1.8647144573e+01 +5.4216382018e+01 -2.7783195759e+01 6.3710580334e+01 0.0000000000e+00 0.0000e+00 -1.0000e+00
<mgrwt>
<rscale>  4 0.25147391E+03</rscale>
<asrwt>0</asrwt>
<pdfrwt beam="1">  1       21 0.22724674E-01 0.25147391E+03</pdfrwt>
<pdfrwt beam="2">  1       21 0.16556592E+00 0.25147391E+03</pdfrwt>
<totfact> 0.39742410E+03</totfact>
</mgrwt>
</event>
<event>
 6      1 +2.5168241e+02 2.96548800e+02 7.54677100e-03 1.16519500e-01
       21 -1    0    0  505  502 +0.0000000000e+00 +0.0000000000e+00 +1.6369425685e+02 1.6369425685e+02 0.0000000000e+00 0.0000e+00 1.0000e+00
       21 -1    0    0  504  503 -0.0000000000e+00 -0.0000000000e+00 -1.2249379133e+03 1.2249379133e+03 0.0000000000e+00 0.0000e+00 1.0000e+00
        6  1    1    2  501    0 +2.9662731472e+01 +2.5811231263e+02 -9.2658438182e+02 9.7774713510e+02 1.7300000000e+02 0.0000e+00 1.0000e+00
       -6  1    1    2    0  503 +6.4800523250e+01 -1.7149644406e+02 -5.5969532828e+01 2.5820868836e+02 1.7300000000e+02 0.0000e+00 1.0000e+00
       21  1    1    2  504  502 -2.0625899039e+01 -8.3325109857e+00 -2.0928717525e+01 3.0542915181e+01 0.0000000000e+00 0.0000e+00 1.0000e+00
       21  1    1    2  505  501 -7.3837355682e+01 -7.8283357583e+01 -5.7761024302e+01 1.2213343153e+02 0.0000000000e+00 0.0000e+00 -1.0000e+00
<mgrwt>
<rscale>  4 0.29654879E+03</rscale>
<asrwt>0</asrwt>
<pdfrwt beam="1">  1       21 0.25183732E-01 0.29654879E+03</pdfrwt>
<pdfrwt beam="2">  1       21 0.18845199E+00 0.29654879E+03</pdfrwt>
<totfact> 0.21916701E+03</totfact>
</mgrwt>
</event>
<event>
 6      1 +2.5168241e+02 2.13987600e+02 7.54677100e-03 1.11471900e-01
       21 -1    0    0  503  502 +0.0000000000e+00 +0.0000000000e+00 +1.2265966700e+03 1.2265966700e+03 0.0000000000e+00 0.0000e+00 1.0000e+00
       21 -1    0    0  501  503 -0.0000000000e+00 -0.0000000000e+00 -1.7192570839e+03 1.7192570839e+03 0.0000000000e+00 0.0000e+00 1.0000e+00
        6  1    1    2  501    0 -6.5496907236e+01 -1.3989833703e+02 -3.9875298607e+02 4.6129636186e+02 1.7300000000e+02 0.0000e+00 1.0000e+00
       -6  1    1    2    0  504 +6.4968523744e+01 +9.8933186898e+01 -1.2586458157e+03 1.2759807890e+03 1.7300000000e+02 0.0000e+00 1.0000e+00
       21  1    1    2  504  505 -2.2532798394e+01 +2.1757983584e+01 -1.0438420350e+01 3.3016624185e+01 0.0000000000e+00 0.0000e+00 -1.0000e+00
       21  1    1    2  505  502 +2.3061181886e+01 +1.9207166544e+01 +1.1751768082e+03 1.1755599789e+03 0.0000000000e+00 0.0000e+00 1.0000e+00
<mgrwt>
<rscale>  4 0.21398760E+03</rscale>
<asrwt>0</asrwt>
<pdfrwt beam="1">  1       21 0.18870718E+00 0.21398760E+03</pdfrwt>
<pdfrwt beam="2">  1       21 0.26450109E+00 0.21398760E+03</pdfrwt>
<totfact> 0.83553563E+00</totfact>
</mgrwt>
</event>
<event>
 6      1 +2.5168241e+02 2.59787200e+02 7.54677100e-03 1.11910500e-01
       21 -1    0    0  501  502 +0.0000000000e+00 +0.0000000000e+00 +1.2825144069e+03 1.2825144069e+03 0.0000000000e+00 0.0000e+00 -1.0000e+00
       21 -1    0    0  504  503 -0.0000000000e+00 -0.0000000000e+00 -3.1276429403e+02 3.1276429403e+02 0.0000000000e+00 0.0000e+00 1.0000e+00
        6  1    1    2  501    0 -1.4655845782e+02 -9.8144866588e+01 +5.9551673811e+02 6.4473326404e+02 1.7300000000e+02 0.0000e+00 -1.0000e+00
       -6  1    1    2    0  503 +1.6911897236e+02 +1.3222227264e+02 +6.2453360473e+02 6.8268234167e+02 1.7300000000e+02 0.0000e+00 -1.0000e+00
       21  1    1    2  504  505 -1.1674517158e+00 -2.5895893540e+01 -2.4217808246e+02 2.4356145810e+02 0.0000000000e+00 0.0000e+00 1.0000e+00
       21  1    1    2  505  502 -2.1393062822e+01 -8.1815125083e+00 -8.1221475559e+00 2.4301637079e+01 0.0000000000e+00 0.0000e+00 1.0000e+00
<mgrwt>
<rscale>  4 0.25978723E+03</rscale>
<asrwt>0</asrwt>
<pdfrwt beam="1">  1       21 0.19730991E+00 0.25978723E+03</pdfrwt>
<pdfrwt beam="2">  1       21 0.48117584E-01 0.25978723E+03</pdfrwt>
<totfact> 0.53772705E+02</totfact>
</mgrwt>
</event>
<event>
 6      1 +2.5168241e+02 2.24407900e+02 7.54677100e-03 1.11910500e-01
       21 -1    0    0  501  502 +0.0000000000e+00 +0.0000000000e+00 +2.0172841400e+03 2.0172841400e+03 0.0000000000e+00 0.0000e+00 1.0000e+00
       21 -1    0    0  505  503 -0.0000000000e+00 -0.0000000000e+00 -2.5411208324e+03 2.5411208324e+03 0.0000000000e+00 0.0000e+00 -1.0000e+00
        6  1    1    2  501    0 +4.3073065857e+01 +1.4813726613e+02 +1.6455040242e+03 1.6617498104e+03 1.7300000000e+02 0.0000e+00 1.0000e+00
       -6  1    1    2    0  504 -4.8002576065e+01 -9.3371824264e+01 +3.3292282058e+02 3.8960126968e+02 1.7300000000e+02 0.0000e+00 1.0000e+00
       21  1    1    2  504  503 -4.4719779854e+01 -4.3367243526e+01 -2.1712601126e+03 2.1721535519e+03 0.0000000000e+00 0.0000e+00 -1.0000e+00
       21  1    1    2  505  502 +4.9649290062e+01 -1.1398198337e+01 -3.3100342454e+02 3.3490034038e+02 0.0000000000e+00 0.0000e+00 1.0000e+00
<mgrwt>
<rscale>  4 0.22440793E+03</rscale>
<asrwt>0</asrwt>
<pdfrwt beam="1">  1       21 0.31035141E+00 0.22440793E+03</pdfrwt>
<pdfrwt beam="2">  1       21 0.39094167E+00 0.22440793E+03</pdfrwt>
<totfact> 0.27042565E-01</totfact>
</mgrwt>
</event>
<event>
 6      1 +2.5168241e+02 2.29237300e+02 7.54677100e-03 1.03924000e-01
       21 -1    0    0  501  502 +0.0000000000e+00 +0.0000000000e+00 +1.4982685641e+03 1.4982685641e+03 0.0000000000e+00 0.0000e+00 -1.0000e+00
       21 -1    0    0  502  503 -0.0000000000e+00 -0.0000000000e+00 -7.6998174149e+01 7.6998174149e+01 0.0000000000e+00 0.0000e+00 -1.0000e+00
        6  1    1    2  501    0 -1.1964088515e+02 -6.5262290995e+01 +2.4451394681e+02 3.2907321102e+02 1.7300000000e+02 0.0000e+00 1.0000e+00
       -6  1    1    2    0  505 +1.0337292394e+02 +1.5854998041e+02 +4.9336370769e+02 5.5602230689e+02 1.7300000000e+02 0.0000e+00 -1.0000e+00
       21  1    1    2  504  503 -2.1789279893e+00 -2.0163634941e+01 +1.1176709373e+02 1.1359226709e+02 0.0000000000e+00 0.0000e+00 1.0000e+00
       21  1    1    2  505  504 +1.8446889195e+01 -7.3124054478e+01 +5.7162564168e+02 5.7657895321e+02 0.0000000000e+00 0.0000e+00 -1.0000e+00
<mgrwt>
<rscale>  4 0.22923734E+03</rscale>
<asrwt>0</asrwt>
<pdfrwt beam="1">  1       21 0.23050283E+00 0.22923734E+03</pdfrwt>
<pdfrwt beam="2">  1       21 0.11845874E-01 0.22923734E+03</pdfrwt>
<totfact> 0.50412249E+03</totfact>
</mgrwt>
</event>
<event>
 6      1 +2.5168241e+02 3.69457100e+02 7.54677100e-03 1.17132900e-01
       21 -1    0    0  503  502 +0.0000000000e+00 +0.0000000000e+00 +5.0601879965e+02 5.0601879965e+02 0.0000000000e+00 0.0000e+00 -1.0000e+00
       21 -1    0    0  504  503 -0.0000000000e+00 -0.0000000000e+00 -8.1230778684e+02 8.1230778684e+02 0.0000000000e+00 0.0000e+00 1.0000e+00
        6  1    1    2  501    0 +3.7358994924e+01 +3.5269308116e+02 +2.0178971417e+02 4.4321122814e+02 1.7300000000e+02 0.0000e+00 -1.0000e+00
       -6  1    1    2    0  505 -7.8092499244e+01 -2.7471039336e+02 -5.6990220797e+02 6.6051628693e+02 1.7300000000e+02 0.0000e+00 1.0000e+00
       21  1    1    2  504  501 +3.0584126203e+01 -5.1788029350e+01 -6.2737116580e+01 8.6909922082e+01 0.0000000000e+00 0.0000e+00 -1.0000e+00
       21  1    1    2  505  502 +1.0149378117e+01 -2.6194658457e+01 +1.2456062319e+02 1.2768914934e+02 0.0000000000e+00 0.0000e+00 -1.0000e+00
<mgrwt>
<rscale>  4 0.36945706E+03</rscale>
<asrwt>0</asrwt>
<pdfrwt beam="1">  1       21 0.77849047E-01 0.36945706E+03</pdfrwt>
<pdfrwt beam="2">  1       21 0.12497043E+00 0.36945706E+03</pdfrwt>
<totfact> 0.60935876E+02</totfact>
</mgrwt>
</event>
<event>
 6      1 +2.5168241e+02 2.39502100e+02 7.54677100e-03 1.16820100e-01
       21 -1    0    0  505  502 +0.0000000000e+00 +0.0000000000e+00 +8.8382029599e+01 8.8382029599e+01 0.0000000000e+00 0.0000e+00 -1.0000e+00
       21 -1    0    0  501  503 -0.0000000000e+00 -0.0000000000e+00 -1.2499238018e+03 1.2499238018e+03 0.0000000000e+00 0.0000e+00 -1.0000e+00
        6  1    1    2  501    0 -9.9884070724e+01 -9.0065495325e+01 -4.8464695777e+02 5.3188372292e+02 1.7300000000e+02 0.0000e+00 -1.0000e+00
       -6  1    1    2    0  502 +1.0991258562e+02 +1.6177807141e+02 -2.3021362507e+02 3.4810951443e+02 1.7300000000e+02 0.0000e+00 -1.0000e+00
       21  1    1    2  504  503 -1.4714769876e-02 -5.2131151994e+01 -4.2218709564e+02 4.2539346604e+02 0.0000000000e+00 0.0000e+00 -1.0000e+00
       21  1    1    2  505  504 -1.0013800122e+01 -1.9581424091e+01 -2.4494093751e+01 3.2919128041e+01 0.0000000000e+00 0.0000e+00 1.0000e+00
<mgrwt>
<rscale>  4 0.23950205E+03</rscale>
<asrwt>0</asrwt>
<pdfrwt beam="1">  1       21 0.13597236E-01 0.23950205E+03</pdfrwt>
<pdfrwt beam="2">  1       21 0.19229596E+00 0.23950205E+03</pdfrwt>
<totfact> 0.68006498E+03</totfact>
</mgrwt>
</event>
<event>
 6      1 +2.5168241e+02 1.85062700e+02 7.54677100e-03 1.16820100e-01
       21 -1    0    0  501  502 +0.0000000000e+00 +0.0000000000e+00 +1.1369206329e+03 1.1369206329e+03 0.0000000000e+00 0.0000e+00 1.0000e+00
       21 -1    0    0  504  503 -0.0000000000e+00 -0.0000000000e+00 -2.9779051977e+02 2.9779051977e+02 0.0000000000e+00 0.0000e+00 1.0000e+00
        6  1    1    2  501    0 +2.1109734353e+01 +9.1381495189e+01 +5.9220994275e+02 6.2404952916e+02 1.7300000000e+02 0.0000e+00 1.0000e+00
       -6  1    1    2    0  503 +4.1554095257e+01 -6.0325362410e+01 +2.1606335413e+02 2.8631846811e+02 1.7300000000e+02 0.0000e+00 1.0000e+00
       21  1    1    2  504  505 -3.3732906536e+01 +1.0902783251e+01 -2.4310738076e+02 2.4567860763e+02 0.0000000000e+00 0.0000e+00 1.0000e+00
       21  1    1    2  505  502 -2.8930923074e+01 -4.1958916030e+01 +2.7396419704e+02 2.7866454781e+02 0.0000000000e+00 0.0000e+00 1.0000e+00
<mgrwt>
<rscale>  4 0.18506272E+03</rscale>
<asrwt>0</asrwt>
<pdfrwt beam="1">  1       21 0.17491086E+00 0.18506272E+03</pdfrwt>
<pdfrwt beam="2">  1       21 0.45813927E-01 0.18506272E+03</pdfrwt>
<totfact> 0.90835222E+02</totfact>
</mgrwt>
</event>
<event>
 6      1 +2.5168241e+02 2.25441700e+02 7.54677100e-03 1.11671100e-01
       21 -1    0    0  503  502 +0.0000000000e+00 +0.0000000000e+00 +2.2555153512e+02 2.2555153512e+02 0.0000000000e+00 0.0000e+00 1.0000e+00
       21 -1    0    0  501  503 -0.0000000000e+00 -0.0000000000e+00 -4.0730773804e+02 4.0730773804e+02 0.0000000000e+00 0.0000e+00 -1.0000e+00
        6  1    1    2  501    0 -7.6066926962e+01 -1.8469100776e+02 -5.8942202196e+01 2.7073996551e+02 1.7300000000e+02 0.0000e+00 1.0000e+00
       -6  1    1    2    0  504 +5.8895531403e+01 +1.0258046110e+02 -1.6291182504e+02 2.6544433947e+02 1.7300000000e+02 0.0000e+00 1.0000e+00
       21  1    1    2  504  505 +8.2970055176e+00 +5.6745084050e+01 +1.3608219275e+01 5.8940889850e+01 0.0000000000e+00 0.0000e+00 1.0000e+00
       21  1    1    2  505  502 +8.8743900414e+00 +2.5365462608e+01 +2.6489605046e+01 3.7734078330e+01 0.0000000000e+00 0.0000e+00 1.0000e+00
<mgrwt>
<rscale>  4 0.22544173E+03</rscale>
<asrwt>0</asrwt>
<pdfrwt beam="1">  1       21 0.34700237E-01 0.22544173E+03</pdfrwt>
<pdfrwt beam="2">  1       21 0.62662728E-01 0.22544173E+03</pdfrwt>
<totfact> 0.18529329E+04</totfact>
</mgrwt>
</event>
<event>
 6      1 +2.5168241e+02 2.73184000e+02 7.54677100e-03 1.03924000e-01
       21 -1    0    0  504  502 +0.0000000000e+00 +0.0000000000e+00 +1.3000538248e+03 1.3000538248e+03 0.0000000000e+00 0.0000e+00 -1.0000e+00
       21 -1    0    0  501  503 -0.0000000000e+00 -0.0000000000e+00 -2.5160414176e+02 2.5160414176e+02 0.0000000000e+00 0.0000e+00 1.0000e+00
        6  1    1    2  501    0 +1.5426614869e+02 -4.9236595920e+01 +2.4777530799e+02 3.4284674457e+02 1.7300000000e+02 0.0000e+00 -1.0000e+00
       -6  1    1    2    0  505 -1.2703163548e+02 +2.0659361270e+02 -8.3625955609e+01 3.0941922641e+02 1.7300000000e+02 0.0000e+00 1.0000e+00
       21  1    1    2  504  503 -1.0910259218e+01 -7.6816667507e+01 +5.3239219271e+02 5.3801606019e+02 0.0000000000e+00 0.0000e+00 -1.0000e+00
       21  1    1    2  505  502 -1.6324253992e+01 -8.0540349273e+01 +3.5190813795e+02 3.6137593540e+02 0.0000000000e+00 0.0000e+00 1.0000e+00
<mgrwt>
<rscale>  4 0.27318403E+03</rscale>
<asrwt>0</asrwt>
<pdfrwt beam="1">  1       21 0.20000828E+00 0.27318403E+03</pdfrwt>
<pdfrwt beam="2">  1       21 0.38708330E-01 0.27318403E+03</pdfrwt>
<totfact> 0.79870801E+02</totfact>
</mgrwt>
</event>
<event>
 6      1 +2.5168241e+02 4.61307400e+02 7.54677100e-03 1.11471900e-01
       21 -1    0    0  503  502 +0.0000000000e+00 +0.0000000000e+00 +4.5706404211e+02 4.5706404211e+02 0.0000000000e+00 0.0000e+00 -1.0000e+00
       21 -1    0    0  501  503 -0.0000000000e+00 -0.0000000000e+00 -4.1399921270e+03 4.1399921270e+03 0.0000000000e+00 0.0000e+00 1.0000e+00
        6  1    1    2  501    0 -3.5591083570e+02 -2.2955093487e+02 -3.4240921391e+03 3.4545190883e+03 1.7300000000e+02 0.0000e+00 1.0000e+00
       -6  1    1    2    0  504 +3.7223623052e+02 +2.5496135954e+02 -5.8983398920e+02 7.6249474817e+02 1.7300000000e+02 0.0000e+00 1.0000e+00
       21  1    1    2  504  505 +1.5759056148e+01 -1.8319382760e+01 -1.7602617016e+01 2.9896484095e+01 0.0000000000e+00 0.0000e+00 1.0000e+00
       21  1    1    2  505  502 -3.2084450966e+01 -7.0910419162e+00 +3.4860066036e+02 3.5014584857e+02 0.0000000000e+00 0.0000e+00 -1.0000e+00
<mgrwt>
<rscale>  4 0.46130737E+03</rscale>
<asrwt>0</asrwt>
<pdfrwt beam="1">  1       21 0.70317544E-01 0.46130737E+03</pdfrwt>
<pdfrwt beam="2">  1       21 0.63692187E+00 0.46130737E+03</pdfrwt>
<totfact> 0.21607924E-01</totfact>
</mgrwt>
</event>
<event>
 6      1 +2.5168241e+02 1.97692900e+02 7.54677100e-03 1.07240600e-01
       21 -1    0    0  505  502 +0.0000000000e+00 +0.0000000000e+00 +9.4472860909e+01 9.4472860909e+01 0.0000000000e+00 0.0000e+00 1.0000e+00
       21 -1    0    0  504  503 -0.0000000000e+00 -0.0000000000e+00 -8.2789014201e+02 8.2789014201e+02 0.0000000000e+00 0.0000e+00 1.0000e+00
        6  1    1    2  501    0 +3.3676169513e+01 -1.1573172501e+02 -1.0697873955e+02 2.3643469983e+02 1.7300000000e+02 0.0000e+00 1.0000e+00
       -6  1    1    2    0  502 -4.3621148187e+01 +4.9611722498e+01 -4.4177050068e+02 4.7901388587e+02 1.7300000000e+02 0.0000e+00 1.0000e+00
       21  1    1    2  504  501 +1.4740307035e+01 +2.5385466129e+01 -1.6205842992e+01 3.3530998929e+01 0.0000000000e+00 0.0000e+00 1.0000e+00
       21  1    1    2  505  503 -4.7953283616e+00 +4.0734536378e+01 -1.6846219788e+02 1.7338341830e+02 0.0000000000e+00 0.0000e+00 1.0000e+00
<mgrwt>
<rscale>  4 0.19769294E+03</rscale>
<asrwt>0</asrwt>
<pdfrwt beam="1">  1       21 0.14534286E-01 0.19769294E+03</pdfrwt>
<pdfrwt beam="2">  1       21 0.12736771E+00 0.19769294E+03</pdfrwt>
<totfact> 0.18844486E+04</totfact>
</mgrwt>
</event>
<event>
 6      1 +2.5168241e+02 1.80269500e+02 7.54677100e-03 1.17132900e-01
       21 -1    0    0  505  502 +0.0000000000e+00 +0.0000000000e+00 +1.2857518530e+03 1.2857518530e+03 0.0000000000e+00 0.0000e+00 -1.0000e+00
       21 -1    0    0  504  503 -0.0000000000e+00 -0.0000000000e+00 -1.2555428714e+02 1.2555428714e+02 0.0000000000e+00 0.0000e+00 -1.0000e+00
        6  1    1    2  501    0 +8.1570604402e+00 +7.3615294234e+01 -4.2635196739e+00 1.8823635882e+02 1.7300000000e+02 0.0000e+00 -1.0000e+00
       -6  1    1    2    0  502 +1.1727994407e+01 +1.2439811104e+01 +5.0674853835e+02 5.3573815980e+02 1.7300000000e+02 0.0000e+00 1.0000e+00
       21  1    1    2  504  501 -4.4093182758e+01 -1.8792470263e+01 +3.2188856244e+01 5.7736367833e+01 0.0000000000e+00 0.0000e+00 -1.0000e+00
       21  1    1    2  505  503 +2.4208127911e+01 -6.7262635076e+01 +6.2552369095e+02 6.2959525370e+02 0.0000000000e+00 0.0000e+00 -1.0000e+00
<mgrwt>
<rscale>  4 0.18026947E+03</rscale>
<asrwt>0</asrwt>
<pdfrwt beam="1">  1       21 0.19780797E+00 0.18026947E+03</pdfrwt>
<pdfrwt beam="2">  1       21 0.19316045E-01 0.18026947E+03</pdfrwt>
<totfact> 0.34586358E+03</totfact>
</mgrwt>
</event>
<event>
 6      1 +2.5168241e+02 1.78461600e+02 7.54677100e-03 1.11671100e-01
       21 -1    0    0  503  502 +0.0000000000e+00 +0.0000000000e+00 +2.8403729651e+02 2.8403729651e+02 0.0000000000e+00 0.0000e+00 1.0000e+00
       21 -1    0    0  501  503 -0.0000000000e+00 -0.0000000000e+00 -7.0626225983e+02 7.0626225983e+02 0.0000000000e+00 0.0000e+00 -1.0000e+00
        6  1    1    2  501    0 +1.3219036627e+01 +1.1355382620e+00 -2.6828483257e+02 3.1950240025e+02 1.7300000000e+02 0.0000e+00 -1.0000e+00
       -6  1    1    2    0  504 -6.1355990388e+01 +3.6219904324e+01 -3.8576828666e+02 4.2874539067e+02 1.7300000000e+02 0.0000e+00 -1.0000e+00
       21  1    1    2  504  505 +2.4985440712e+01 -5.4470540164e+00 +1.3682031646e+02 1.3918958884e+02 0.0000000000e+00 0.0000e+00 1.0000e+00
       21  1    1    2  505  502 +2.3151513050e+01 -3.1908388569e+01 +9.5007839444e+01 1.0286217659e+02 0.0000000000e+00 0.0000e+00 1.0000e+00
<mgrwt>
<rscale>  4 0.17846160E+03</rscale>
<asrwt>0</asrwt>
<pdfrwt beam="1">  1       21 0.43698047E-01 0.17846160E+03</pdfrwt>
<pdfrwt beam="2">  1       21 0.10865573E+00 0.17846160E+03</pdfrwt>
<totfact> 0.34278971E+03</totfact>
</mgrwt>
</event>
<event>
 6      1 +2.5168241e+02 2.23138500e+02 7.54677100e-03 1.16820100e-01
       21 -1    0    0  505  502 +0.0000000000e+00 +0.0000000000e+00 +9.1799321698e+02 9.1799321698e+02 0.0000000000e+00 0.0000e+00 -1.0000e+00
       21 -1    0    0  501  503 -0.0000000000e+00 -0.0000000000e+00 -1.7975679515e+02 1.7975679515e+02 0.0000000000e+00 0.0000e+00 1.0000e+00
        6  1    1    2  501    0 +9.5840465098e+01 +1.3713765240e+02 +1.1319546278e+02 2.6595928871e+02 1.7300000000e+02 0.0000e+00 1.0000e+00
       -6  1    1    2    0  502 -1.1257223485e+02 -6.5760303949e+01 +3.7854678580e+02 4.3614629962e+02 1.7300000000e+02 0.0000e+00 -1.0000e+00
       21  1    1    2  504  503 +3.9130346646e+01 -8.8510351816e+01 -4.2200788443e+01 1.0557543726e+02 0.0000000000e+00 0.0000e+00 1.0000e+00
       21  1    1    2  505  504 -2.2398576891e+01 +1.7133003363e+01 +2.8869496168e+02 2.9006898654e+02 0.0000000000e+00 0.0000e+00 -1.0000e+00
<mgrwt>
<rscale>  4 0.22313851E+03</rscale>
<asrwt>0</asrwt>
<pdfrwt beam="1">  1       21 0.14122972E+00 0.22313851E+03</pdfrwt>
<pdfrwt beam="2">  1       21 0.27654892E-01 0.22313851E+03</pdfrwt>
<totfact> 0.42585734E+03</totfact>
</mgrwt>
</event>
<event>
 6      1 +2.5168241e+02 3.29079600e+02 7.54677100e-03 1.07064900e-01
       21 -1    0    0  505  502 +0.0000000000e+00 +0.0000000000e+00 +5.7253778723e+02 5.7253778723e+02 0.0000000000e+00 0.0000e+00 1.0000e+00
       21 -1    0    0  501  503 -0.0000000000e+00 -0.0000000000e+00 -4.2900127667e+02 4.2900127667e+02 0.0000000000e+00 0.0000e+00 1.0000e+00
        6  1    1    2  501    0 +2.1420009387e+02 -6.7271539032e+01 -1.7738298126e+02 3.3436635928e+02 1.7300000000e+02 0.0000e+00 1.0000e+00
       -6  1    1    2    0  502 +7.8758491097e+01 +1.2453466208e+02 +1.7226156709e+00 2.2725261139e+02 1.7300000000e+02 0.0000e+00 -1.0000e+00
       21  1    1    2  504  503 -2.7169546764e+02 -4.1085444475e+01 +2.7852616134e+02 3.9125856340e+02 0.0000000000e+00 0.0000e+00 1.0000e+00
       21  1    1    2  505  504 -2.1263117330e+01 -1.6177678577e+01 +4.0670714803e+01 4.8661529829e+01 0.0000000000e+00 0.0000e+00 1.0000e+00
<mgrwt>
<rscale>  4 0.29998518E+03</rscale>
<asrwt>0</asrwt>
<pdfrwt beam="1">  1       21 0.88082736E-01 0.32907957E+03</pdfrwt>
<pdfrwt beam="2">  1       21 0.66000197E-01 0.32907957E+03</pdfrwt>
<totfact> 0.21196131E+03</totfact>
</mgrwt>
</event>
<event>
 6      1 +2.5168241e+02 2.22957000e+02 7.54677100e-03 1.17132900e-01
       21 -1    0    0  505  502 +0.0000000000e+00 +0.0000000000e+00 +4.2780632512e+02 4.2780632512e+02 0.0000000000e+00 0.0000e+00 -1.0000e+00
       21 -1    0    0  504  503 -0.0000000000e+00 -0.0000000000e+00 -4.7910713501e+02 4.7910713501e+02 0.0000000000e+00 0.0000e+00 1.0000e+00
        6  1    1    2  501    0 -7.0079601008e+01 +4.0695267339e+01 -4.9356622893e+01 1.9731277578e+02 1.7300000000e+02 0.0000e+00 -1.0000e+00
       -6  1    1    2    0  502 +2.2541761670e+02 -1.2910009455e+01 -6.1040425322e+01 2.9092044237e+02 1.7300000000e+02 0.0000e+00 1.0000e+00
       21  1    1    2  504  501 -4.7551249379e+01 -3.1850737004e+01 -1.6246873141e+02 1.7225469355e+02 0.0000000000e+00 0.0000e+00 1.0000e+00
       21  1    1    2  505  503 -1.0778676631e+02 +4.0654791199e+00 +2.2156496973e+02 2.4642554844e+02 0.0000000000e+00 0.0000e+00 -1.0000e+00
<mgrwt>
<rscale>  4 0.22295705E+03</rscale>
<asrwt>0</asrwt>
<pdfrwt beam="1">  1       21 0.65816358E-01 0.22295705E+03</pdfrwt>
<pdfrwt beam="2">  1       21 0.73708790E-01 0.22295705E+03</pdfrwt>
<totfact> 0.34219382E+03</totfact>
</mgrwt>
</event>
<event>
 6      1 +2.5168241e+02 1.77376200e+02 7.54677100e-03 1.07064900e-01
       21 -1    0    0  505  502 +0.0000000000e+00 +0.0000000000e+00 +6.7534593480e+01 6.7534593480e+01 0.0000000000e+00 0.0000e+00 -1.0000e+00
       21 -1    0    0  504  503 -0.0000000000e+00 -0.0000000000e+00 -2.4615528617e+03 2.4615528617e+03 0.0000000000e+00 0.0000e+00 1.0000e+00
        6  1    1    2  501    0 -1.2317074403e+01 -3.6379378843e+01 -8.7480601183e+02 8.9257477438e+02 1.7300000000e+02 0.0000e+00 1.0000e+00
       -6  1    1    2    0  503 +2.3399743461e+01 +3.2722202178e+01 -1.4970015965e+03 1.5075015988e+03 1.7300000000e+02 0.0000e+00 1.0000e+00
       21  1    1    2  504  502 +2.0943402922e+01 +3.4944891215e+00 +4.7645923376e+01 5.2162933147e+01 0.0000000000e+00 0.0000e+00 -1.0000e+00
       21  1    1    2  505  501 -3.2026071980e+01 +1.6268754281e-01 -6.9856583252e+01 7.6848148822e+01 0.0000000000e+00 0.0000e+00 1.0000e+00
<mgrwt>
<rscale>  4 0.17737624E+03</rscale>
<asrwt>0</asrwt>
<pdfrwt beam="1">  1       21 0.10389936E-01 0.17737624E+03</pdfrwt>
<pdfrwt beam="2">  1       21 0.37870049E+00 0.17737624E+03</pdfrwt>
<totfact> 0.91522824E+02</totfact>
</mgrwt>
</event>
<event>
 6      1 +2.5168241e+02 2.42231600e+02 7.54677100e-03 1.16820100e-01
       21 -1    0    0  505  502 +0.0000000000e+00 +0.0000000000e+00 +2.7229209398e+02 2.7229209398e+02 0.0000000000e+00 0.0000e+00 -1.0000e+00
       21 -1    0    0  501  503 -0.0000000000e+00 -0.0000000000e+00 -9.5197738224e+02 9.5197738224e+02 0.0000000000e+00 0.0000e+00 -1.0000e+00
        6  1    1    2  501    0 +1.1227752094e+02 -5.1652153861e+01 -4.9282797729e+02 5.3673326887e+02 1.7300000000e+02 0.0000e+00 -1.0000e+00
       -6  1    1    2    0  502 -1.1507858533e+02 +1.3546729692e+02 +1.3109474322e+02 2.8055177960e+02 1.7300000000e+02 0.0000e+00 -1.0000e+00
       21  1    1    2  504  503 -2.1680661102e+01 +4.7543387138e+01 -2.5313676668e+02 2.5847368796e+02 0.0000000000e+00 0.0000e+00 -1.0000e+00
       21  1    1    2  505  504 +2.4481725488e+01 -1.3135853020e+02 -6.4815287512e+01 1.4851073979e+02 0.0000000000e+00 0.0000e+00 -1.0000e+00
<mgrwt>
<rscale>  4 0.24223160E+03</rscale>
<asrwt>0</asrwt>
<pdfrwt beam="1">  1       21 0.41891092E-01 0.24223160E+03</pdfrwt>
<pdfrwt beam="2">  1       21 0.14645806E+00 0.24223160E+03</pdfrwt>
<totfact> 0.16703782E+03</totfact>
</mgrwt>
</event>
<event>
 6      1 +2.5168241e+02 1.76776400e+02 7.54677100e-03 1.17132900e-01
       21 -1    0    0  505  502 +0.0000000000e+00 +0.0000000000e+00 +3.0595461505e+02 3.0595461505e+02 0.0000000000e+00 0.0000e+00 -1.0000e+00
       21 -1    0    0  504  503 -0.0000000000e+00 -0.0000000000e+00 -3.8805875091e+02 3.8805875091e+02 0.0000000000e+00 0.0000e+00 -1.0000e+00
        6  1    1    2  501    0 -5.6351005860e+01 -6.3781589018e+01 -1.5723555911e+02 2.4878815890e+02 1.7300000000e+02 0.0000e+00 -1.0000e+00
       -6  1    1    2    0  502 -2.8005801366e+00 +3.0825570868e+01 +1.7679159971e+02 2.4928363122e+02 1.7300000000e+02 0.0000e+00 -1.0000e+00
       21  1    1    2  504  501 -2.1074018293e+01 -1.0694656809e+01 -1.0190491057e+02 1.0460927650e+02 0.0000000000e+00 0.0000e+00 -1.0000e+00
       21  1    1    2  505  503 +8.0225604290e+01 +4.3650674959e+01 +2.4473411659e-01 9.1332299340e+01 0.0000000000e+00 0.0000e+00 -1.0000e+00
<mgrwt>
<rscale>  4 0.17677640E+03</rscale>
<asrwt>0</asrwt>
<pdfrwt beam="1">  1       21 0.47069941E-01 0.17677640E+03</pdfrwt>
<pdfrwt beam="2">  1       21 0.59701346E-01 0.17677640E+03</pdfrwt>
<totfact> 0.11435527E+04</totfact>
</mgrwt>
</event>
<event>
 6      1 +2.5168241e+02 4.23616500e+02 7.54677100e-03 1.03924000e-01
       21 -1    0    0  504  502 +0.0000000000e+00 +0.0000000000e+00 +6.3919416464e+02 6.3919416464e+02 0.0000000000e+00 0.0000e+00 -1.0000e+00
       21 -1    0    0  501  503 -0.0000000000e+00 -0.0000000000e+00 -1.5186075155e+03 1.5186075155e+03 0.0000000000e+00 0.0000e+00 1.0000e+00
        6  1    1    2  501    0 -1.9686654770e+02 +3.1909848070e+02 -4.5045934545e+02 6.1108338211e+02 1.7300000000e+02 0.0000e+00 -1.0000e+00
       -6  1    1    2    0  505 +3.1982111561e+02 -2.4759706531e+02 -8.4875919358e+02 9.5598693580e+02 1.7300000000e+02 0.0000e+00 1.0000e+00
       21  1    1    2  504  503 -6.4380200728e+01 -1.8797331565e+02 +4.1518341415e+02 4.6027822567e+02 0.0000000000e+00 0.0000e+00 -1.0000e+00
       21  1    1    2  505  502 -5.8574367183e+01 +1.1647190026e+02 +4.6217740182e+00 1.3045313655e+02 0.0000000000e+00 0.0000e+00 -1.0000e+00
<mgrwt>
<rscale>  4 0.42361653E+03</rscale>
<asrwt>0</asrwt>
<pdfrwt beam="1">  1       21 0.98337564E-01 0.42361653E+03</pdfrwt>
<pdfrwt beam="2">  1       21 0.23363193E+00 0.42361653E+03</pdfrwt>
<totfact> 0.56262626E+01</totfact>
</mgrwt>
</event>
<event>
 6      1 +2.5168241e+02 2.00910000e+02 7.54677100e-03 1.07064900e-01
       21 -1    0    0  504  502 +0.0000000000e+00 +0.0000000000e+00 +1.1600005047e+02 1.1600005047e+02 0.0000000000e+00 0.0000e+00 -1.0000e+00
       21 -1    0    0  501  503 -0.0000000000e+00 -0.0000000000e+00 -6.7023809917e+02 6.7023809917e+02 0.0000000000e+00 0.0000e+00 -1.0000e+00
        6  1    1    2  501    0 -1.0640639692e+02 +2.3802696416e+01 -4.2910091792e+02 4.7533723547e+02 1.7300000000e+02 0.0000e+00 -1.0000e+00
       -6  1    1    2    0  505 +8.8662494240e+01 +1.3931672363e+01 -1.0718714314e+02 2.2242574724e+02 1.7300000000e+02 0.0000e+00 -1.0000e+00
       21  1    1    2  504  503 +2.4255588889e+01 -5.6812523979e+01 -2.5661421379e+01 6.6891741048e+01 0.0000000000e+00 0.0000e+00 1.0000e+00
       21  1    1    2  505  502 -6.5116862122e+00 +1.9078155201e+01 +7.7114337357e+00 2.1583425897e+01 0.0000000000e+00 0.0000e+00 1.0000e+00
<mgrwt>
<rscale>  4 0.20091002E+03</rscale>
<asrwt>0</asrwt>
<pdfrwt beam="1">  1       21 0.17846162E-01 0.20091002E+03</pdfrwt>
<pdfrwt beam="2">  1       21 0.10311355E+00 0.20091002E+03</pdfrwt>
<totfact> 0.21655715E+04</totfact>
</mgrwt>
</event>
<event>
 6      1 +2.5168241e+02 2.08878200e+02 7.54677100e-03 1.03924000e-01
       21 -1    0    0  504  502 +0.0000000000e+00 +0.0000000000e+00 +1.1858331907e+02 1.1858331907e+02 0.0000000000e+00 0.0000e+00 1.0000e+00
       21 -1    0    0  501  503 -0.0000000000e+00 -0.0000000000e+00 -1.3057027548e+03 1.3057027548e+03 0.0000000000e+00 0.0000e+00 1.0000e+00
        6  1    1    2  501    0 -5.2864217635e+01 -1.6246317338e+02 -5.3474544408e+02 5.8742710031e+02 1.7300000000e+02 0.0000e+00 1.0000e+00
       -6  1    1    2    0  505 +9.6425951214e+01 +3.9004341298e+01 -6.2670373214e+02 6.5841162702e+02 1.7300000000e+02 0.0000e+00 1.0000e+00
       21  1    1    2  504  503 +3.7415113171e+01 +1.3994290282e+01 -3.2556201370e-01 3.9947926664e+01 0.0000000000e+00 0.0000e+00 1.0000e+00
       21  1    1    2  505  502 -8.0976846750e+01 +1.0946454180e+02 -2.5344697515e+01 1.3849941991e+02 0.0000000000e+00 0.0000e+00 1.0000e+00
<mgrwt>
<rscale>  4 0.20887822E+03</rscale>
<asrwt>0</asrwt>
<pdfrwt beam="1">  1       21 0.18243588E-01 0.20887822E+03</pdfrwt>
<pdfrwt beam="2">  1       21 0.20087734E+00 0.20887822E+03</pdfrwt>
<totfact> 0.35743834E+03</totfact>
</mgrwt>
</event>
<event>
 6      1 +2.5168241e+02 2.16989200e+02 7.54677100e-03 1.07240600e-01
       21 -1    0    0  505  502 +0.0000000000e+00 +0.0000000000e+00 +7.8769417770e+02 7.8769417770e+02 0.0000000000e+00 0.0000e+00 1.0000e+00
       21 -1    0    0  504  503 -0.0000000000e+00 -0.0000000000e+00 -3.9625978941e+02 3.9625978941e+02 0.0000000000e+00 0.0000e+00 -1.0000e+00
        6  1    1    2  501    0 +1.1456557439e+02 +5.4042399893e+01 +6.0077056732e+02 6.3788723641e+02 1.7300000000e+02 0.0000e+00 1.0000e+00
       -6  1    1    2    0  502 -1.3241241391e+02 -3.5859670407e+01 -1.9961696638e+02 2.9764894857e+02 1.7300000000e+02 0.0000e+00 -1.0000e+00
       21  1    1    2  504  501 +1.6615368544e+01 -4.3998837981e+01 +1.1332056686e+02 1.2269278336e+02 0.0000000000e+00 0.0000e+00 1.0000e+00
       21  1    1    2  505  503 +1.2314709702e+00 +2.5816108496e+01 -1.2303977950e+02 1.2572499877e+02 0.0000000000e+00 0.0000e+00 1.0000e+00
<mgrwt>
<rscale>  4 0.21698921E+03</rscale>
<asrwt>0</asrwt>
<pdfrwt beam="1">  1       21 0.12118372E+00 0.21698921E+03</pdfrwt>
<pdfrwt beam="2">  1       21 0.60963045E-01 0.21698921E+03</pdfrwt>
<totfact> 0.12609936E+03</totfact>
</mgrwt>
</event>
<event>
 6      1 +2.5168241e+02 2.16942500e+02 7.54677100e-03 1.11471900e-01
       21 -1    0    0  503  502 +0.0000000000e+00 +0.0000000000e+00 +1.1089479354e+03 1.1089479354e+03 0.0000000000e+00 0.0000e+00 1.0000e+00
       21 -1    0    0  501  503 -0.0000000000e+00 -0.0000000000e+00 -8.3237539663e+01 8.3237539663e+01 0.0000000000e+00 0.0000e+00 1.0000e+00
        6  1    1    2  501    0 -1.0040083143e+02 -8.9512928386e+01 +4.7810307124e+02 5.2593197092e+02 1.7300000000e+02 0.0000e+00 1.0000e+00
       -6  1    1    2    0  504 +8.6226643660e+01 +7.1122338974e+01 +1.7323693409e+02 2.6913464383e+02 1.7300000000e+02 0.0000e+00 1.0000e+00
       21  1    1    2  504  505 +1.2771491470e+01 +3.9921889981e+01 +2.8754292643e+01 5.0829889233e+01 0.0000000000e+00 0.0000e+00 -1.0000e+00
       21  1    1    2  505  502 +1.4026962953e+00 -2.1531300569e+01 +3.4561609774e+02 3.4628897106e+02 0.0000000000e+00 0.0000e+00 1.0000e+00
<mgrwt>
<rscale>  4 0.21694254E+03</rscale>
<asrwt>0</asrwt>
<pdfrwt beam="1">  1       21 0.17060736E+00 0.21694254E+03</pdfrwt>
<pdfrwt beam="2">  1       21 0.12805776E-01 0.21694254E+03</pdfrwt>
<totfact> 0.10834464E+04</totfact>
</mgrwt>
</event>
<event>
 6      1 +2.5168241e+02 2.34592800e+02 7.54677100e-03 1.04003000e-01
       21 -1    0    0  504  502 +0.0000000000e+00 +0.0000000000e+00 +5.3254445661e+02 5.3254445661e+02 0.0000000000e+00 0.0000e+00 -1.0000e+00
       21 -1    0    0  502  503 -0.0000000000e+00 -0.0000000000e+00 -1.7561735092e+02 1.7561735092e+02 0.0000000000e+00 0.0000e+00 1.0000e+00
        6  1    1    2  501    0 -3.0913957699e+01 -1.6212375645e+02 +2.3453299580e+02 3.3492463526e+02 1.7300000000e+02 0.0000e+00 1.0000e+00
       -6  1    1    2    0  505 +6.0054929352e+01 +1.4023013640e+02 +1.6102911316e+02 2.8130137038e+02 1.7300000000e+02 0.0000e+00 1.0000e+00
       21  1    1    2  504  501 -3.1268266848e+00 +3.2745795247e+01 -5.1374745551e+01 6.1003513275e+01 0.0000000000e+00 0.0000e+00 1.0000e+00
       21  1    1    2  505  503 -2.6014144969e+01 -1.0852175197e+01 +1.2739742280e+01 3.0932288605e+01 0.0000000000e+00 0.0000e+00 1.0000e+00
<mgrwt>
<rscale>  4 0.23459279E+03</rscale>
<asrwt>0</asrwt>
<pdfrwt beam="1">  1       21 0.81929915E-01 0.23459279E+03</pdfrwt>
<pdfrwt beam="2">  1       21 0.27018054E-01 0.23459279E+03</pdfrwt>
<totfact> 0.16589425E+04</totfact>
</mgrwt>
</event>
<event>
 6      1 +2.5168241e+02 4.80671300e+02 7.54677100e-03 1.07064900e-01
       21 -1    0    0  504  502 +0.0000000000e+00 +0.0000000000e+00 +1.5628819496e+03 1.5628819496e+03 0.0000000000e+00 0.0000e+00 1.0000e+00
       21 -1    0    0  501  503 -0.0000000000e+00 -0.0000000000e+00 -2.8096656155e+02 2.8096656155e+02 0.0000000000e+00 0.0000e+00 -1.0000e+00
        6  1    1    2  501    0 -3.4294939743e+02 +2.9296442094e+02 +3.5135002921e+01 4.8436134194e+02 1.7300000000e+02 0.0000e+00 -1.0000e+00
       -6  1    1    2    0  505 +3.1879785138e+02 -3.0040408902e+02 +1.0384172422e+03 1.1402254407e+03 1.7300000000e+02 0.0000e+00 1.0000e+00
       21  1    1    2  504  503 +6.8021399992e+00 +2.6028666817e+01 +3.5519603772e+01 4.4557859654e+01 0.0000000000e+00 0.0000e+00 -1.0000e+00
       21  1    1    2  505  502 +1.7349406054e+01 -1.8588998732e+01 +1.7284353921e+02 1.7470386891e+02 0.0000000000e+00 0.0000e+00 -1.0000e+00
<mgrwt>
<rscale>  4 0.48067131E+03</rscale>
<asrwt>0</asrwt>
<pdfrwt beam="1">  1       21 0.24044337E+00 0.48067131E+03</pdfrwt>
<pdfrwt beam="2">  1       21 0.43225626E-01 0.48067131E+03</pdfrwt>
<totfact> 0.30897185E+02</totfact>
</mgrwt>
</event>
<event>
 6      1 +2.5168241e+02 2.37703200e+02 7.54677100e-03 1.03924000e-01
       21 -1    0    0  504  502 +0.0000000000e+00 +0.0000000000e+00 +4.1957973064e+01 4.1957973064e+01 0.0000000000e+00 0.0000e+00 -1.0000e+00
       21 -1    0    0  501  503 -0.0000000000e+00 -0.0000000000e+00 -2.7344454055e+03 2.7344454055e+03 0.0000000000e+00 0.0000e+00 -1.0000e+00
        6  1    1    2  501    0 -1.2245145396e+02 +6.7062407675e+01 -1.3354683314e+03 1.3538450389e+03 1.7300000000e+02 0.0000e+00 -1.0000e+00
       -6  1    1    2    0  505 +1.1976878536e+02 -1.9395543548e+02 -1.0653913307e+03 1.1031550029e+03 1.7300000000e+02 0.0000e+00 -1.0000e+00
       21  1    1    2  504  503 +9.4902230303e+00 +2.8439260974e+01 -4.8620437204e+01 5.7120948975e+01 0.0000000000e+00 0.0000e+00 -1.0000e+00
       21  1    1    2  505  502 -6.8075544353e+00 +9.8453766831e+01 -2.4300733306e+02 2.6228238775e+02 0.0000000000e+00 0.0000e+00 -1.0000e+00
<mgrwt>
<rscale>  4 0.23770318E+03</rscale>
<asrwt>0</asrwt>
<pdfrwt beam="1">  1       21 0.64550714E-02 0.23770318E+03</pdfrwt>
<pdfrwt beam="2">  1       21 0.42068400E+00 0.23770318E+03</pdfrwt>
<totfact> 0.10533246E+03</totfact>
</mgrwt>
</event>
<event>
 6      1 +2.5168241e+02 3.13532800e+02 7.54677100e-03 1.11910500e-01
       21 -1    0    0  501  502 +0.0000000000e+00 +0.0000000000e+00 +1.4717515637e+02 1.4717515637e+02 0.0000000000e+00 0.0000e+00 -1.0000e+00
       21 -1    0    0  505  503 -0.0000000000e+00 -0.0000000000e+00 -8.8986017501e+02 8.8986017501e+02 0.0000000000e+00 0.0000e+00 1.0000e+00
        6  1    1    2  501    0 -1.3668011707e+02 +1.9428931151e+02 -4.0194697035e+02 4.9791581412e+02 1.7300000000e+02 0.0000e+00 -1.0000e+00
       -6  1    1    2    0  504 +1.9397976023e+02 -1.9695016976e+02 -2.2645693063e+02 3.9702551326e+02 1.7300000000e+02 0.0000e+00 1.0000e+00
       21  1    1    2  504  503 -5.6870700194e+00 -2.1553469822e+01 -1.2824764642e+01 2.5717103548e+01 0.0000000000e+00 0.0000e+00 1.0000e+00
       21  1    1    2  505  502 -5.1612573147e+01 +2.4214328072e+01 -1.0145635301e+02 1.1637690044e+02 0.0000000000e+00 0.0000e+00 1.0000e+00
<mgrwt>
<rscale>  4 0.31353283E+03</rscale>
<asrwt>0</asrwt>
<pdfrwt beam="1">  1       21 0.22642333E-01 0.31353283E+03</pdfrwt>
<pdfrwt beam="2">  1       21 0.13690156E+00 0.31353283E+03</pdfrwt>
<totfact> 0.64227331E+03</totfact>
</mgrwt>
</event>
<event>
 6      1 +2.5168241e+02 2.09087700e+02 7.54677100e-03 1.11910500e-01
       21 -1    0    0  501  502 +0.0000000000e+00 +0.0000000000e+00 +7.1568803384e+02 7.1568803384e+02 0.0000000000e+00 0.0000e+00 1.0000e+00
       21 -1    0    0  505  503 -0.0000000000e+00 -0.0000000000e+00 -3.2012187087e+02 3.2012187087e+02 0.0000000000e+00 0.0000e+00 1.0000e+00
        6  1    1    2  501    0 +5.1970636958e+01 -8.0922412317e+01 +1.5080925922e+02 2.4884094636e+02 1.7300000000e+02 0.0000e+00 1.0000e+00
       -6  1    1    2    0  504 -1.1830004701e+02 +5.9282951574e+01 +4.8659857980e+02 5.3311963698e+02 1.7300000000e+02 0.0000e+00 1.0000e+00
       21  1    1    2  504  503 +2.5260569162e+01 +8.8087153275e+00 -4.4928028358e+01 5.2289746148e+01 0.0000000000e+00 0.0000e+00 -1.0000e+00
       21  1    1    2  505  502 +4.1068840887e+01 +1.2830745415e+01 -1.9691364768e+02 2.0155957522e+02 0.0000000000e+00 0.0000e+00 1.0000e+00
<mgrwt>
<rscale>  4 0.20908765E+03</rscale>
<asrwt>0</asrwt>
<pdfrwt beam="1">  1       21 0.11010585E+00 0.20908765E+03</pdfrwt>
<pdfrwt beam="2">  1       21 0.49249519E-01 0.20908765E+03</pdfrwt>
<totfact> 0.25258135E+03</totfact>
</mgrwt>
</event>
<event>
 6      1 +2.5168241e+02 2.13349600e+02 7.54677100e-03 1.12989000e-01
       21 -1    0    0  505  502 +0.0000000000e+00 +0.0000000000e+00 +9.2950335221e+02 9.2950335221e+02 0.0000000000e+00 0.0000e+00 1.0000e+00
       21 -1    0    0  504  503 -0.0000000000e+00 -0.0000000000e+00 -4.8816432208e+02 4.8816432208e+02 0.0000000000e+00 0.0000e+00 -1.0000e+00
        6  1    1    2  501    0 -8.0111178576e+01 -1.0718228696e+02 +7.6355488448e+02 7.9426123233e+02 1.7300000000e+02 0.0000e+00 1.0000e+00
       -6  1    1    2    0  502 +4.0060581427e+01 +7.9244946549e+01 +8.4395662195e+01 2.1198169623e+02 1.7300000000e+02 0.0000e+00 1.0000e+00
       21  1    1    2  504  501 +1.9212440410e+01 +1.8202714792e+01 -8.5784525774e+01 8.9774392532e+01 0.0000000000e+00 0.0000e+00 1.0000e+00
       21  1    1    2  505  503 +2.0838156739e+01 +9.7346256197e+00 -3.2082699077e+02 3.2165035320e+02 0.0000000000e+00 0.0000e+00 -1.0000e+00
<mgrwt>
<rscale>  4 0.21334957E+03</rscale>
<asrwt>0</asrwt>
<pdfrwt beam="1">  1       21 0.14300052E+00 0.21334957E+03</pdfrwt>
<pdfrwt beam="2">  1       21 0.75102204E-01 0.21334957E+03</pdfrwt>
<totfact> 0.52489507E+02</totfact>
</mgrwt>
</event>
<event>
 6      1 +2.5168241e+02 2.20287500e+02 7.54677100e-03 1.12989000e-01
       21 -1    0    0  505  502 +0.0000000000e+00 +0.0000000000e+00 +6.5790323300e+02 6.5790323300e+02 0.0000000000e+00 0.0000e+00 1.0000e+00
       21 -1    0    0  504  503 -0.0000000000e+00 -0.0000000000e+00 -1.8942931748e+02 1.8942931748e+02 0.0000000000e+00 0.0000e+00 -1.0000e+00
        6  1    1    2  501    0 +2.1009422967e+02 -7.5316599393e+01 +1.5127153431e+02 3.2035020302e+02 1.7300000000e+02 0.0000e+00 1.0000e+00
       -6  1    1    2    0  502 -4.6709025962e+01 +1.0688066546e+02 +2.6767264466e+02 3.3938599625e+02 1.7300000000e+02 0.0000e+00 1.0000e+00
       21  1    1    2  504  501 -2.6293003736e+01 -2.7113615303e+01 -8.4151186691e+00 3.8694759367e+01 0.0000000000e+00 0.0000e+00 1.0000e+00
       21  1    1    2  505  503 -1.3709219997e+02 -4.4504507672e+00 +5.7944855217e+01 1.4890159183e+02 0.0000000000e+00 0.0000e+00 -1.0000e+00
<mgrwt>
<rscale>  4 0.22028755E+03</rscale>
<asrwt>0</asrwt>
<pdfrwt beam="1">  1       21 0.10121588E+00 0.22028755E+03</pdfrwt>
<pdfrwt beam="2">  1       21 0.29142972E-01 0.22028755E+03</pdfrwt>
<totfact> 0.88217328E+03</totfact>
</mgrwt>
</event>
<event>
 6      1 +2.5168241e+02 2.38186300e+02 7.54677100e-03 1.07064900e-01
       21 -1    0    0  505  502 +0.0000000000e+00 +0.0000000000e+00 +1.3178808835e+03 1.3178808835e+03 0.0000000000e+00 0.0000e+00 1.0000e+00
       21 -1    0    0  504  503 -0.0000000000e+00 -0.0000000000e+00 -1.6576221951e+02 1.6576221951e+02 0.0000000000e+00 0.0000e+00 -1.0000e+00
        6  1    1    2  501    0 +1.0888055120e+02 -1.3798355113e+02 +4.0183995994e+02 4.7148572429e+02 1.7300000000e+02 0.0000e+00 1.0000e+00
       -6  1    1    2    0  503 -1.1416866166e+02 +1.1348070055e+02 -2.0167893318e+01 2.3716681181e+02 1.7300000000e+02 0.0000e+00 -1.0000e+00
       21  1    1    2  504  502 -2.1579738835e+01 +3.2342353365e-01 +6.2492310135e+01 6.6114132808e+01 0.0000000000e+00 0.0000e+00 1.0000e+00
       21  1    1    2  505  501 +2.6867849299e+01 +2.4179427043e+01 +7.0795428719e+02 7.0887643407e+02 0.0000000000e+00 0.0000e+00 1.0000e+00
<mgrwt>
<rscale>  4 0.23818634E+03</rscale>
<asrwt>0</asrwt>
<pdfrwt beam="1">  1       21 0.20275090E+00 0.23818634E+03</pdfrwt>
<pdfrwt beam="2">  1       21 0.25501881E-01 0.23818634E+03</pdfrwt>
<totfact> 0.17990007E+03</totfact>
</mgrwt>
</event>
<event>
 6      1 +2.5168241e+02 3.60525900e+02 7.54677100e-03 1.11671100e-01
       21 -1    0    0  503  502 +0.0000000000e+00 +0.0000000000e+00 +5.1722706047e+02 5.1722706047e+02 0.0000000000e+00 0.0000e+00 1.0000e+00
       21 -1    0    0  501  503 -0.0000000000e+00 -0.0000000000e+00 -7.6749849207e+02 7.6749849207e+02 0.0000000000e+00 0.0000e+00 -1.0000e+00
        6  1    1    2  501    0 +1.3755012773e+02 -9.4598828222e+01 -3.7514805206e+02 4.4557158449e+02 1.7300000000e+02 0.0000e+00 -1.0000e+00
       -6  1    1    2    0  504 +1.6826009682e+02 +2.4651613717e+02 -1.0505758052e+02 3.6062135446e+02 1.7300000000e+02 0.0000e+00 1.0000e+00
       21  1    1    2  504  505 -3.3801763040e+02 -9.1748560603e+01 +1.7874572741e+02 3.9322226781e+02 0.0000000000e+00 0.0000e+00 1.0000e+00
       21  1    1    2  505  502 +3.2207405850e+01 -6.0168748346e+01 +5.1188473576e+01 8.5310345774e+01 0.0000000000e+00 0.0000e+00 1.0000e+00
<mgrwt>
<rscale>  4 0.32691791E+03</rscale>
<asrwt>0</asrwt>
<pdfrwt beam="1">  1       21 0.79573394E-01 0.36052590E+03</pdfrwt>
<pdfrwt beam="2">  1       21 0.11807669E+00 0.36052590E+03</pdfrwt>
<totfact> 0.67260402E+02</totfact>
</mgrwt>
</event>
<event>
 6      1 +2.5168241e+02 1.83628100e+02 7.54677100e-03 1.17132900e-01
       21 -1    0    0  505  502 +0.0000000000e+00 +0.0000000000e+00 +2.9861334687e+02 2.9861334687e+02 0.0000000000e+00 0.0000e+00 1.0000e+00
       21 -1    0    0  504  503 -0.0000000000e+00 -0.0000000000e+00 -3.0738114941e+02 3.0738114941e+02 0.0000000000e+00 0.0000e+00 1.0000e+00
        6  1    1    2  501    0 +1.7783902619e+01 +6.1330391553e+01 -1.0907731757e+02 2.1425346048e+02 1.7300000000e+02 0.0000e+00 -1.0000e+00
       -6  1    1    2    0  502 -9.5803039604e+01 -2.2104827709e+00 -3.6922169899e+01 2.0118487831e+02 1.7300000000e+02 0.0000e+00 1.0000e+00
       21  1    1    2  504  501 +4.9513147971e+01 -1.2517601452e+01 +9.9293062385e+00 5.2027236045e+01 0.0000000000e+00 0.0000e+00 1.0000e+00
       21  1    1    2  505  503 +2.8505989014e+01 -4.6602307331e+01 +1.2730237868e+02 1.3852892144e+02 0.0000000000e+00 0.0000e+00 1.0000e+00
<mgrwt>
<rscale>  4 0.18362806E+03</rscale>
<asrwt>0</asrwt>
<pdfrwt beam="1">  1       21 0.45940515E-01 0.18362806E+03</pdfrwt>
<pdfrwt beam="2">  1       21 0.47289407E-01 0.18362806E+03</pdfrwt>
<totfact> 0.19532328E+04</totfact>
</mgrwt>
</event>
<event>
 6      1 +2.5168241e+02 2.00840100e+02 7.54677100e-03 1.11910500e-01
       21 -1    0    0  501  502 +0.0000000000e+00 +0.0000000000e+00 +2.9830485299e+02 2.9830485299e+02 0.0000000000e+00 0.0000e+00 -1.0000e+00
       21 -1    0    0  505  503 -0.0000000000e+00 -0.0000000000e+00 -4.8121393533e+02 4.8121393533e+02 0.0000000000e+00 0.0000e+00 -1.0000e+00
        6  1    1    2  501    0 +8.7840740466e+01 +3.9918803088e+00 +1.7214648024e+02 2.5941345658e+02 1.7300000000e+02 0.0000e+00 -1.0000e+00
       -6  1    1    2    0  504 -1.8303281159e+02 -3.4218036496e+01 -1.9371329156e+02 3.1957115556e+02 1.7300000000e+02 0.0000e+00 -1.0000e+00
       21  1    1    2  504  503 +1.7878600471e+01 -1.8642172549e+01 -5.1366682371e+01 5.7495312939e+01 0.0000000000e+00 0.0000e+00 -1.0000e+00
       21  1    1    2  505  502 +7.7313470652e+01 +4.8868328736e+01 -1.0997558866e+02 1.4303886325e+02 0.0000000000e+00 0.0000e+00 -1.0000e+00
<mgrwt>
<rscale>  4 0.20084008E+03</rscale>
<asrwt>0</asrwt>
<pdfrwt beam="1">  1       21 0.45893054E-01 0.20084008E+03</pdfrwt>
<pdfrwt beam="2">  1       21 0.74032913E-01 0.20084008E+03</pdfrwt>
<totfact> 0.74037303E+03</totfact>
</mgrwt>
</event>
<event>
 6      1 +2.5168241e+02 2.48664400e+02 7.54677100e-03 1.11910500e-01
       21 -1    0    0  501  502 +0.0000000000e+00 +0.0000000000e+00 +2.4132561305e+02 2.4132561305e+02 0.0000000000e+00 0.0000e+00 1.0000e+00
       21 -1    0    0  505  503 -0.0000000000e+00 -0.0000000000e+00 -1.5834673762e+03 1.5834673762e+03 0.0000000000e+00 0.0000e+00 1.0000e+00
        6  1    1    2  501    0 +7.1422967342e+01 -1.4945154868e+02 +1.1196883482e+02 2.6439180327e+02 1.7300000000e+02 0.0000e+00 1.0000e+00
       -6  1    1    2    0  504 -1.0827566219e+02 +2.4723212553e+02 -4.8732634438e+02 5.8332093126e+02 1.7300000000e+02 0.0000e+00 1.0000e+00
       21  1    1    2  504  503 -2.4115518880e+01 -9.6653925709e+00 -3.5773370497e+02 3.5867587281e+02 0.0000000000e+00 0.0000e+00 1.0000e+00
       21  1    1    2  505  502 +6.0968213729e+01 -8.8115184280e+01 -6.0905054859e+02 6.1840438188e+02 0.0000000000e+00 0.0000e+00 1.0000e+00
<mgrwt>
<rscale>  4 0.24866442E+03</rscale>
<asrwt>0</asrwt>
<pdfrwt beam="1">  1       21 0.37127020E-01 0.24866442E+03</pdfrwt>
<pdfrwt beam="2">  1       21 0.24361035E+00 0.24866442E+03</pdfrwt>
<totfact> 0.47543253E+02</totfact>
</mgrwt>
</event>
<event>
 6      1 +2.5168241e+02 2.20869200e+02 7.54677100e-03 1.11910500e-01
       21 -1    0    0  501  502 +0.0000000000e+00 +0.0000000000e+00 +7.2466439567e+01 7.2466439567e+01 0.0000000000e+00 0.0000e+00 -1.0000e+00
       21 -1    0    0  505  503 -0.0000000000e+00 -0.0000000000e+00 -1.6168575008e+03 1.6168575008e+03 0.0000000000e+00 0.0000e+00 1.0000e+00
        6  1    1    2  501    0 -3.3276520434e+01 -1.1747640447e+02 -2.3171018139e+02 3.1388953563e+02 1.7300000000e+02 0.0000e+00 -1.0000e+00
       -6  1    1    2    0  504 +6.1449122074e+01 +1.5290853535e+02 -4.5389687535e+02 5.1294092081e+02 1.7300000000e+02 0.0000e+00 -1.0000e+00
       21  1    1    2  504  503 +1.7211035669e+01 -2.8875647423e+01 -4.0843286287e+02 4.0981389220e+02 0.0000000000e+00 0.0000e+00 1.0000e+00
       21  1    1    2  505  502 -4.5383637309e+01 -6.5564834602e+00 -4.5035114160e+02 4.5267959171e+02 0.0000000000e+00 0.0000e+00 1.0000e+00
<mgrwt>
<rscale>  4 0.22086922E+03</rscale>
<asrwt>0</asrwt>
<pdfrwt beam="1">  1       21 0.11148683E-01 0.22086922E+03</pdfrwt>
<pdfrwt beam="2">  1       21 0.24874730E+00 0.22086922E+03</pdfrwt>
<totfact> 0.44001026E+03</totfact>
</mgrwt>
</event>
<event>
 6      1 +2.5168241e+02 2.29165500e+02 7.54677100e-03 1.15942100e-01
       21 -1    0    0  504  502 +0.0000000000e+00 +0.0000000000e+00 +1.9061795561e+03 1.9061795561e+03 0.0000000000e+00 0.0000e+00 1.0000e+00
       21 -1    0    0  501  503 -0.0000000000e+00 -0.0000000000e+00 -4.4594684572e+02 4.4594684572e+02 0.0000000000e+00 0.0000e+00 -1.0000e+00
        6  1    1    2  501    0 -1.5183575277e+02 +6.5403028479e+01 +1.4670027453e+03 1.4863908324e+03 1.7300000000e+02 0.0000e+00 1.0000e+00
       -6  1    1    2    0  502 +1.1646380517e+02 -5.5823113874e+00 +4.0067084946e+02 4.5173123616e+02 1.7300000000e+02 0.0000e+00 1.0000e+00
       21  1    1    2  504  505 +1.3315494001e+01 -4.1076110301e+01 -2.0445774244e+02 2.0896774311e+02 0.0000000000e+00 0.0000e+00 -1.0000e+00
       21  1    1    2  505  503 +2.2056453591e+01 -1.8744606790e+01 -2.0298314189e+02 2.0503659020e+02 0.0000000000e+00 0.0000e+00 -1.0000e+00
<mgrwt>
<rscale>  4 0.22916547E+03</rscale>
<asrwt>0</asrwt>
<pdfrwt beam="1">  1       21 0.29325839E+00 0.22916547E+03</pdfrwt>
<pdfrwt beam="2">  1       21 0.68607208E-01 0.22916547E+03</pdfrwt>
<totfact> 0.68305424E+01</totfact>
</mgrwt>
</event>
<event>
 6      1 +2.5168241e+02 2.57978000e+02 7.54677100e-03 1.07064900e-01
       21 -1    0    0  505  502 +0.0000000000e+00 +0.0000000000e+00 +1.6047843165e+02 1.6047843165e+02 0.0000000000e+00 0.0000e+00 1.0000e+00
       21 -1    0    0  501  503 -0.0000000000e+00 -0.0000000000e+00 -6.8155644667e+02 6.8155644667e+02 0.0000000000e+00 0.0000e+00 1.0000e+00
        6  1    1    2  501    0 +1.5499006543e+02 -1.5700674645e+02 -3.7598420703e+02 4.6900550397e+02 1.7300000000e+02 0.0000e+00 1.0000e+00
       -6  1    1    2    0  502 -1.2909346083e+02 +7.9938428844e+01 -1.2882329283e+02 2.6377967096e+02 1.7300000000e+02 0.0000e+00 1.0000e+00
       21  1    1    2  504  503 -3.5386812154e+01 +5.7042992635e+01 -3.8893767072e+01 7.7581277382e+01 0.0000000000e+00 0.0000e+00 1.0000e+00
       21  1    1    2  505  504 +9.4902075535e+00 +2.0025324972e+01 +2.2623251910e+01 3.1668426021e+01 0.0000000000e+00 0.0000e+00 1.0000e+00
<mgrwt>
<rscale>  4 0.25797799E+03</rscale>
<asrwt>0</asrwt>
<pdfrwt beam="1">  1       21 0.24688990E-01 0.25797799E+03</pdfrwt>
<pdfrwt beam="2">  1       21 0.10485484E+00 0.25797799E+03</pdfrwt>
<totfact> 0.10919588E+04</totfact>
</mgrwt>
</event>
<event>
 6      1 +2.5168241e+02 2.21420200e+02 7.54677100e-03 1.15942100e-01
       21 -1    0    0  504  502 +0.0000000000e+00 +0.0000000000e+00 +1.1013675152e+02 1.1013675152e+02 0.0000000000e+00 0.0000e+00 1.0000e+00
       21 -1    0    0  501  503 -0.0000000000e+00 -0.0000000000e+00 -9.5604915261e+02 9.5604915261e+02 0.0000000000e+00 0.0000e+00 -1.0000e+00
        6  1    1    2  501    0 +1.3925858918e+02 -1.7195371936e+01 -6.5788659006e+02 6.9457353884e+02 1.7300000000e+02 0.0000e+00 -1.0000e+00
       -6  1    1    2    0  502 -1.1990820287e+02 +7.7780737343e+01 -1.9493439036e+02 2.9724776999e+02 1.7300000000e+02 0.0000e+00 1.0000e+00
       21  1    1    2  504  505 -4.8479036870e+00 -3.8338864830e+01 +2.1335511064e+01 4.4142663705e+01 0.0000000000e+00 0.0000e+00 1.0000e+00
       21  1    1    2  505  503 -1.4502482616e+01 -2.2246500577e+01 -1.4426931733e+01 3.0221931593e+01 0.0000000000e+00 0.0000e+00 1.0000e+00
<mgrwt>
<rscale>  4 0.22142017E+03</rscale>
<asrwt>0</asrwt>
<pdfrwt beam="1">  1       21 0.16944116E-01 0.22142017E+03</pdfrwt>
<pdfrwt beam="2">  1       21 0.14708448E+00 0.22142017E+03</pdfrwt>
<totfact> 0.96725580E+03</totfact>
</mgrwt>
</event>
<event>
 6      1 +2.5168241e+02 1.97683100e+02 7.54677100e-03 9.87464100e-02
       21 -1    0    0  503  502 +0.0000000000e+00 +0.0000000000e+00 +7.3129436118e+01 7.3129436118e+01 0.0000000000e+00 0.0000e+00 -1.0000e+00
       21 -1    0    0  505  503 -0.0000000000e+00 -0.0000000000e+00 -1.0569646222e+03 1.0569646222e+03 0.0000000000e+00 0.0000e+00 -1.0000e+00
        6  1    1    2  501    0 +3.8200314433e+00 -8.6756466916e+01 -7.1402322006e+02 7.3979688832e+02 1.7300000000e+02 0.0000e+00 -1.0000e+00
       -6  1    1    2    0  504 -1.4721726122e+01 +1.2643203275e+02 -2.0526918730e+02 2.9709632677e+02 1.7300000000e+02 0.0000e+00 -1.0000e+00
       21  1    1    2  504  502 -2.1153148685e+01 -1.5133726335e+01 -3.2704224500e+01 4.1785783135e+01 0.0000000000e+00 0.0000e+00 -1.0000e+00
       21  1    1    2  505  501 +3.2054843364e+01 -2.4541839496e+01 -3.1838554221e+01 5.1415060088e+01 0.0000000000e+00 0.0000e+00 -1.0000e+00
<mgrwt>
<rscale>  4 0.19768311E+03</rscale>
<asrwt>0</asrwt>
<pdfrwt beam="1">  1       21 0.11250683E-01 0.19768311E+03</pdfrwt>
<pdfrwt beam="2">  1       21 0.16260993E+00 0.19768311E+03</pdfrwt>
<totfact> 0.15804490E+04</totfact>
</mgrwt>
</event>
<event>
 6      1 +2.5168241e+02 1.83283100e+02 7.54677100e-03 1.15942100e-01
       21 -1    0    0  504  502 +0.0000000000e+00 +0.0000000000e+00 +2.3477158233e+02 2.3477158233e+02 0.0000000000e+00 0.0000e+00 -1.0000e+00
       21 -1    0    0  501  503 -0.0000000000e+00 -0.0000000000e+00 -4.3529860632e+02 4.3529860632e+02 0.0000000000e+00 0.0000e+00 -1.0000e+00
        6  1    1    2  501    0 -3.5750045453e+01 +6.8768932144e+01 -1.4240542293e+02 2.3709815743e+02 1.7300000000e+02 0.0000e+00 -1.0000e+00
       -6  1    1    2    0  502 +5.6885371337e+01 -2.0196872319e+01 +1.3785321150e+02 2.2929537074e+02 1.7300000000e+02 0.0000e+00 -1.0000e+00
       21  1    1    2  504  505 -1.6911867591e+01 -1.8975453496e+01 -9.7940796311e+01 1.0118536793e+02 0.0000000000e+00 0.0000e+00 -1.0000e+00
       21  1    1    2  505  503 -4.2234582935e+00 -2.9596606328e+01 -9.8034016247e+01 1.0249129255e+02 0.0000000000e+00 0.0000e+00 -1.0000e+00
<mgrwt>
<rscale>  4 0.18328315E+03</rscale>
<asrwt>0</asrwt>
<pdfrwt beam="1">  1       21 0.36118705E-01 0.18328315E+03</pdfrwt>
<pdfrwt beam="2">  1       21 0.66969016E-01 0.18328315E+03</pdfrwt>
<totfact> 0.15185186E+04</totfact>
</mgrwt>
</event>
<event>
 6      1 +2.5168241e+02 1.81203600e+02 7.54677100e-03 1.16820100e-01
       21 -1    0    0  504  502 +0.0000000000e+00 +0.0000000000e+00 +2.2379684470e+02 2.2379684470e+02 0.0000000000e+00 0.0000e+00 1.0000e+00
       21 -1    0    0  501  503 -0.0000000000e+00 -0.0000000000e+00 -3.5852830962e+02 3.5852830962e+02 0.0000000000e+00 0.0000e+00 -1.0000e+00
        6  1    1    2  501    0 -6.9439941164e+01 +4.4186662070e+01 -1.9810797512e+01 1.9260278874e+02 1.7300000000e+02 0.0000e+00 1.0000e+00
       -6  1    1    2    0  505 +1.0144665180e+01 -3.6817033765e+01 +4.1502163844e+01 1.8196108873e+02 1.7300000000e+02 0.0000e+00 1.0000e+00
       21  1    1    2  504  503 +3.9727246066e+01 -1.4096051482e+01 -1.7496843291e+02 1.7997473507e+02 0.0000000000e+00 0.0000e+00 -1.0000e+00
       21  1    1    2  505  502 +1.9568029918e+01 +6.7264231774e+00 +1.8545601654e+01 2.7786541785e+01 0.0000000000e+00 0.0000e+00 1.0000e+00
<mgrwt>
<rscale>  4 0.18120364E+03</rscale>
<asrwt>0</asrwt>
<pdfrwt beam="1">  1       21 0.34430284E-01 0.18120364E+03</pdfrwt>
<pdfrwt beam="2">  1       21 0.55158201E-01 0.18120364E+03</pdfrwt>
<totfact> 0.25367295E+04</totfact>
</mgrwt>
</event>
<event>
 6      1 +2.5168241e+02 3.06815200e+02 7.54677100e-03 1.09842800e-01
       21 -1    0    0  505  502 +0.0000000000e+00 +0.0000000000e+00 +3.6188179761e+02 3.6188179761e+02 0.0000000000e+00 0.0000e+00 -1.0000e+00
       21 -1    0    0  502  503 -0.0000000000e+00 -0.0000000000e+00 -1.0112430907e+03 1.0112430907e+03 0.0000000000e+00 0.0000e+00 1.0000e+00
        6  1    1    2  501    0 +1.2738571197e+02 +1.4509552672e+02 -1.0164227320e+02 2.7846002081e+02 1.7300000000e+02 0.0000e+00 -1.0000e+00
       -6  1    1    2    0  503 -2.1866737588e+02 -1.7063374225e+02 -7.6032848913e+02 8.2762292540e+02 1.7300000000e+02 0.0000e+00 1.0000e+00
       21  1    1    2  504  501 +5.0926665247e+01 +2.1829488051e+01 +5.1336006656e+00 5.5645355938e+01 0.0000000000e+00 0.0000e+00 -1.0000e+00
       21  1    1    2  505  504 +4.0354998669e+01 +3.7087274862e+00 +2.0747586859e+02 2.1139658613e+02 0.0000000000e+00 0.0000e+00 -1.0000e+00
<mgrwt>
<rscale>  4 0.30681521E+03</rscale>
<asrwt>0</asrwt>
<pdfrwt beam="1">  1       21 0.55674123E-01 0.30681521E+03</pdfrwt>
<pdfrwt beam="2">  1       21 0.15557586E+00 0.30681521E+03</pdfrwt>
<totfact> 0.74753979E+02</totfact>
</mgrwt>
</event>
<event>
 6      1 +2.5168241e+02 2.90537900e+02 7.54677100e-03 1.15942100e-01
       21 -1    0    0  504  502 +0.0000000000e+00 +0.0000000000e+00 +5.5251990432e+02 5.5251990432e+02 0.0000000000e+00 0.0000e+00 -1.0000e+00
       21 -1    0    0  501  503 -0.0000000000e+00 -0.0000000000e+00 -1.0555562734e+03 1.0555562734e+03 0.0000000000e+00 0.0000e+00 -1.0000e+00
        6  1    1    2  501    0 +9.7645485435e+01 +1.2275275517e+02 +1.4634310783e+02 2.7558698252e+02 1.7300000000e+02 0.0000e+00 -1.0000e+00
       -6  1    1    2    0  502 -5.8073483827e-01 +6.5774542684e+01 +1.9427528826e+02 2.6832539080e+02 1.7300000000e+02 0.0000e+00 1.0000e+00
       21  1    1    2  504  505 -2.0231640709e+02 -3.0405200180e+02 -2.3156353216e+02 4.3243637428e+02 0.0000000000e+00 0.0000e+00 -1.0000e+00
       21  1    1    2  505  503 +1.0525165650e+02 +1.1552470395e+02 -6.1209123297e+02 6.3172743006e+02 0.0000000000e+00 0.0000e+00 -1.0000e+00
<mgrwt>
<rscale>  4 0.26092588E+03</rscale>
<asrwt>0</asrwt>
<pdfrwt beam="1">  1       21 0.85003062E-01 0.29053786E+03</pdfrwt>
<pdfrwt beam="2">  1       21 0.16239327E+00 0.29053786E+03</pdfrwt>
<totfact> 0.26238958E+02</totfact>
</mgrwt>
</event>
<event>
 6      1 +2.5168241e+02 2.23602300e+02 7.54677100e-03 1.07240600e-01
       21 -1    0    0  505  502 +0.0000000000e+00 +0.0000000000e+00 +8.3232994158e+02 8.3232994158e+02 0.0000000000e+00 0.0000e+00 1.0000e+00
       21 -1    0    0  504  503 -0.0000000000e+00 -0.0000000000e+00 -2.5916247378e+02 2.5916247378e+02 0.0000000000e+00 0.0000e+00 -1.0000e+00
        6  1    1    2  501    0 +1.3785620230e+02 -1.1209523331e+02 +1.5874295991e+02 2.9444524307e+02 1.7300000000e+02 0.0000e+00 1.0000e+00
       -6  1    1    2    0  502 -1.1043967846e+02 +7.0887977811e+01 +5.6638379863e+02 6.0658192796e+02 1.7300000000e+02 0.0000e+00 1.0000e+00
       21  1    1    2  504  501 -7.7389480427e-01 +6.0456306567e+01 -3.6965364037e+01 7.0866085367e+01 0.0000000000e+00 0.0000e+00 -1.0000e+00
       21  1    1    2  505  503 -2.6642629034e+01 -1.9249051069e+01 -1.1499392670e+02 1.1959915897e+02 0.0000000000e+00 0.0000e+00 -1.0000e+00
<mgrwt>
<rscale>  4 0.22360227E+03</rscale>
<asrwt>0</asrwt>
<pdfrwt beam="1">  1       21 0.12805076E+00 0.22360227E+03</pdfrwt>
<pdfrwt beam="2">  1       21 0.39871150E-01 0.22360227E+03</pdfrwt>
<totfact> 0.26513565E+03</totfact>
</mgrwt>
</event>
<event>
 6      1 +2.5168241e+02 3.07658400e+02 7.54677100e-03 1.12068800e-01
       21 -1    0    0  504  502 +0.0000000000e+00 +0.0000000000e+00 +6.9294635162e+02 6.9294635162e+02 0.0000000000e+00 0.0000e+00 -1.0000e+00
       21 -1    0    0  502  503 -0.0000000000e+00 -0.0000000000e+00 -6.2837372414e+02 6.2837372414e+02 0.0000000000e+00 0.0000e+00 1.0000e+00
        6  1    1    2  501    0 -1.6321403806e+02 -2.5300818080e+02 -6.2848459296e+01 3.5288934613e+02 1.7300000000e+02 0.0000e+00 1.0000e+00
       -6  1    1    2    0  505 +1.4481843460e+02 +1.9767269905e+02 +4.9226514504e+02 5.7645541716e+02 1.7300000000e+02 0.0000e+00 -1.0000e+00
       21  1    1    2  504  501 -5.3342017047e+00 +3.9513191205e+01 -1.7636105527e+01 4.3597915147e+01 0.0000000000e+00 0.0000e+00 -1.0000e+00
       21  1    1    2  505  503 +2.3729805166e+01 +1.5822290546e+01 -3.4720795273e+02 3.4837739733e+02 0.0000000000e+00 0.0000e+00 1.0000e+00
<mgrwt>
<rscale>  4 0.30765843E+03</rscale>
<asrwt>0</asrwt>
<pdfrwt beam="1">  1       21 0.10660713E+00 0.30765843E+03</pdfrwt>
<pdfrwt beam="2">  1       21 0.96672880E-01 0.30765843E+03</pdfrwt>
<totfact> 0.56730680E+02</totfact>
</mgrwt>
</event>
<event>
 6      1 +2.5168241e+02 2.88715800e+02 7.54677100e-03 1.09842800e-01
       21 -1    0    0  503  502 +0.0000000000e+00 +0.0000000000e+00 +1.5929429017e+02 1.5929429017e+02 0.0000000000e+00 0.0000e+00 -1.0000e+00
       21 -1    0    0  504  503 -0.0000000000e+00 -0.0000000000e+00 -7.3154088729e+02 7.3154088729e+02 0.0000000000e+00 0.0000e+00 1.0000e+00
        6  1    1    2  501    0 +1.4169095378e+02 -1.6110328035e+02 -1.8165932929e+02 3.3009045009e+02 1.7300000000e+02 0.0000e+00 -1.0000e+00
       -6  1    1    2    0  505 -1.5050931917e+02 +1.9076228552e+02 -3.7239743326e+02 4.7712907377e+02 1.7300000000e+02 0.0000e+00 -1.0000e+00
       21  1    1    2  504  501 +4.1473037451e+01 -1.5453585849e+01 -1.8585974242e+01 4.8002756062e+01 0.0000000000e+00 0.0000e+00 -1.0000e+00
       21  1    1    2  505  502 -3.2654672052e+01 -1.4205419325e+01 +3.9613967585e-01 3.5612897547e+01 0.0000000000e+00 0.0000e+00 -1.0000e+00
<mgrwt>
<rscale>  4 0.28871580E+03</rscale>
<asrwt>0</asrwt>
<pdfrwt beam="1">  1       21 0.24506814E-01 0.28871580E+03</pdfrwt>
<pdfrwt beam="2">  1       21 0.11254475E+00 0.28871580E+03</pdfrwt>
<totfact> 0.91717794E+03</totfact>
</mgrwt>
</event>
<event>
 6      1 +2.5168241e+02 1.82289300e+02 7.54677100e-03 1.12989000e-01
       21 -1    0    0  505  502 +0.0000000000e+00 +0.0000000000e+00 +8.0588495481e+02 8.0588495481e+02 0.0000000000e+00 0.0000e+00 1.0000e+00
       21 -1    0    0  504  503 -0.0000000000e+00 -0.0000000000e+00 -3.5402794683e+02 3.5402794683e+02 0.0000000000e+00 0.0000e+00 1.0000e+00
        6  1    1    2  501    0 +4.1026694219e+01 +6.8889826769e+01 +5.8714391543e+02 6.1732971360e+02 1.7300000000e+02 0.0000e+00 1.0000e+00
       -6  1    1    2    0  502 +4.3615680503e+01 -1.5113617501e+01 +1.5372301743e+02 2.3598837918e+02 1.7300000000e+02 0.0000e+00 -1.0000e+00
       21  1    1    2  504  501 -6.1568670243e+01 -3.5008085295e+01 -1.7549245501e+02 1.8924552559e+02 0.0000000000e+00 0.0000e+00 1.0000e+00
       21  1    1    2  505  503 -2.3073704480e+01 -1.8768123974e+01 -1.1351746987e+02 1.1734928326e+02 0.0000000000e+00 0.0000e+00 1.0000e+00
<mgrwt>
<rscale>  4 0.18228929E+03</rscale>
<asrwt>0</asrwt>
<pdfrwt beam="1">  1       21 0.12398230E+00 0.18228929E+03</pdfrwt>
<pdfrwt beam="2">  1       21 0.54465838E-01 0.18228929E+03</pdfrwt>
<totfact> 0.15661773E+03</totfact>
</mgrwt>
</event>
<event>
 6      1 +2.5168241e+02 1.77631000e+02 7.54677100e-03 1.03924000e-01
       21 -1    0    0  504  502 +0.0000000000e+00 +0.0000000000e+00 +4.0627776488e+02 4.0627776488e+02 0.0000000000e+00 0.0000e+00 -1.0000e+00
       21 -1    0    0  501  503 -0.0000000000e+00 -0.0000000000e+00 -2.0401846166e+02 2.0401846166e+02 0.0000000000e+00 0.0000e+00 -1.0000e+00
        6  1    1    2  501    0 -2.8580410138e+01 +1.9099427608e+01 -5.9129482019e+01 1.8602936226e+02 1.7300000000e+02 0.0000e+00 -1.0000e+00
       -6  1    1    2    0  505 +4.8639992125e+01 -1.6411153749e+01 +3.2793000656e+01 1.8341089306e+02 1.7300000000e+02 0.0000e+00 -1.0000e+00
       21  1    1    2  504  503 -2.2975325360e+01 -2.2995761433e+01 +4.1873501493e+01 5.3010006098e+01 0.0000000000e+00 0.0000e+00 -1.0000e+00
       21  1    1    2  505  502 +2.9157433732e+00 +2.0307487573e+01 +1.8672228309e+02 1.8784596512e+02 0.0000000000e+00 0.0000e+00 -1.0000e+00
<mgrwt>
<rscale>  4 0.17763099E+03</rscale>
<asrwt>0</asrwt>
<pdfrwt beam="1">  1       21 0.62504271E-01 0.17763099E+03</pdfrwt>
<pdfrwt beam="2">  1       21 0.31387456E-01 0.17763099E+03</pdfrwt>
<totfact> 0.23348574E+04</totfact>
</mgrwt>
</event>
<event>
 6      1 +2.5168241e+02 2.34061100e+02 7.54677100e-03 1.15832300e-01
       21 -1    0    0  501  502 +0.0000000000e+00 +0.0000000000e+00 +2.8877534144e+02 2.8877534144e+02 0.0000000000e+00 0.0000e+00 1.0000e+00
       21 -1    0    0  502  503 -0.0000000000e+00 -0.0000000000e+00 -1.0730311763e+03 1.0730311763e+03 0.0000000000e+00 0.0000e+00 1.0000e+00
        6  1    1    2  501    0 -4.8102778452e+01 -1.5801361157e+02 +1.9319615268e+02 3.0746696107e+02 1.7300000000e+02 0.0000e+00 1.0000e+00
       -6  1    1    2    0  504 -5.0812703305e+00 +1.1508698029e+02 -3.3863031540e+02 3.9732898566e+02 1.7300000000e+02 0.0000e+00 1.0000e+00
       21  1    1    2  504  505 +4.1250549930e+01 +5.7191863348e+00 -4.2827984089e+01 5.9737368397e+01 0.0000000000e+00 0.0000e+00 1.0000e+00
       21  1    1    2  505  503 +1.1933498853e+01 +3.7207444940e+01 -5.9599368802e+02 5.9727320257e+02 0.0000000000e+00 0.0000e+00 1.0000e+00
<mgrwt>
<rscale>  4 0.23406115E+03</rscale>
<asrwt>0</asrwt>
<pdfrwt beam="1">  1       21 0.44426974E-01 0.23406115E+03</pdfrwt>
<pdfrwt beam="2">  1       21 0.16508172E+00 0.23406115E+03</pdfrwt>
<totfact> 0.10801833E+03</totfact>
</mgrwt>
</event>
<event>
 6      1 +2.5168241e+02 2.65149500e+02 7.54677100e-03 1.12068800e-01
       21 -1    0    0  504  502 +0.0000000000e+00 +0.0000000000e+00 +4.2458972182e+02 4.2458972182e+02 0.0000000000e+00 0.0000e+00 1.0000e+00
       21 -1    0    0  502  503 -0.0000000000e+00 -0.0000000000e+00 -9.7228193940e+02 9.7228193940e+02 0.0000000000e+00 0.0000e+00 -1.0000e+00
        6  1    1    2  501    0 -9.1439515621e+01 -9.8608548092e+01 -3.4342840873e+02 4.0737808323e+02 1.7300000000e+02 0.0000e+00 -1.0000e+00
       -6  1    1    2    0  505 +1.3577244846e+02 +1.5938118680e+02 +3.4006097556e+02 4.3520913084e+02 1.7300000000e+02 0.0000e+00 1.0000e+00
       21  1    1    2  504  501 -1.2404974567e+01 -6.2984889822e+01 -4.5274350802e+02 4.5727198011e+02 0.0000000000e+00 0.0000e+00 -1.0000e+00
       21  1    1    2  505  503 -3.1927958271e+01 +2.2122511152e+00 -9.1581276394e+01 9.7012467035e+01 0.0000000000e+00 0.0000e+00 1.0000e+00
<mgrwt>
<rscale>  4 0.26514947E+03</rscale>
<asrwt>0</asrwt>
<pdfrwt beam="1">  1       21 0.65321497E-01 0.26514947E+03</pdfrwt>
<pdfrwt beam="2">  1       21 0.14958183E+00 0.26514947E+03</pdfrwt>
<totfact> 0.60571151E+02</totfact>
</mgrwt>
</event>
<event>
 6      1 +2.5168241e+02 2.10519400e+02 7.54677100e-03 1.06249800e-01
       21 -1    0    0  503  502 +0.0000000000e+00 +0.0000000000e+00 +2.0016089888e+02 2.0016089888e+02 0.0000000000e+00 0.0000e+00 1.0000e+00
       21 -1    0    0  501  503 -0.0000000000e+00 -0.0000000000e+00 -4.8961493999e+02 4.8961493999e+02 0.0000000000e+00 0.0000e+00 1.0000e+00
        6  1    1    2  501    0 +2.6438032974e+01 +2.7111121170e+01 -1.2589814563e+02 2.1728627557e+02 1.7300000000e+02 0.0000e+00 1.0000e+00
       -6  1    1    2    0  505 -1.6993525246e+02 -7.9303442408e+01 -1.9527727602e+01 2.5588543950e+02 1.7300000000e+02 0.0000e+00 1.0000e+00
       21  1    1    2  504  502 +1.0494663450e+02 +1.3836758214e+01 -1.0886616032e+02 1.5184562171e+02 0.0000000000e+00 0.0000e+00 1.0000e+00
       21  1    1    2  505  504 +3.8550584987e+01 +3.8355563024e+01 -3.5162007556e+01 6.4758502092e+01 0.0000000000e+00 0.0000e+00 -1.0000e+00
<mgrwt>
<rscale>  4 0.21051942E+03</rscale>
<asrwt>0</asrwt>
<pdfrwt beam="1">  1       21 0.30793985E-01 0.21051942E+03</pdfrwt>
<pdfrwt beam="2">  1       21 0.75325374E-01 0.21051942E+03</pdfrwt>
<totfact> 0.15767406E+04</totfact>
</mgrwt>
</event>
<event>
 6      1 +2.5168241e+02 2.05691200e+02 7.54677100e-03 1.16820100e-01
       21 -1    0    0  501  502 +0.0000000000e+00 +0.0000000000e+00 +5.4384782340e+02 5.4384782340e+02 0.0000000000e+00 0.0000e+00 -1.0000e+00
       21 -1    0    0  504  503 -0.0000000000e+00 -0.0000000000e+00 -3.0438373891e+02 3.0438373891e+02 0.0000000000e+00 0.0000e+00 -1.0000e+00
        6  1    1    2  501    0 -8.0588236314e+01 -1.2791481015e+02 +1.4698126771e+02 2.7274375437e+02 1.7300000000e+02 0.0000e+00 -1.0000e+00
       -6  1    1    2    0  503 +1.0824756558e+02 -3.9505164859e+01 +1.4643400565e+01 2.0837855620e+02 1.7300000000e+02 0.0000e+00 -1.0000e+00
       21  1    1    2  504  505 +6.3418796494e+01 +7.9412269213e+00 -9.5274213973e+01 1.1472655613e+02 0.0000000000e+00 0.0000e+00 -1.0000e+00
       21  1    1    2  505  502 -9.1078125764e+01 +1.5947874809e+02 +1.7311363019e+02 2.5238269561e+02 0.0000000000e+00 0.0000e+00 -1.0000e+00
<mgrwt>
<rscale>  4 0.20569119E+03</rscale>
<asrwt>0</asrwt>
<pdfrwt beam="1">  1       21 0.83668896E-01 0.20569119E+03</pdfrwt>
<pdfrwt beam="2">  1       21 0.46828268E-01 0.20569119E+03</pdfrwt>
<totfact> 0.53689181E+03</totfact>
</mgrwt>
</event>
<event>
 6      1 +2.5168241e+02 1.97124900e+02 7.54677100e-03 1.16820100e-01
       21 -1    0    0  505  502 +0.0000000000e+00 +0.0000000000e+00 +6.2674516169e+01 6.2674516169e+01 0.0000000000e+00 0.0000e+00 -1.0000e+00
       21 -1    0    0  501  503 -0.0000000000e+00 -0.0000000000e+00 -1.2246199366e+03 1.2246199366e+03 0.0000000000e+00 0.0000e+00 1.0000e+00
        6  1    1    2  501    0 +7.7438330307e+01 -9.2115922276e-01 -1.7610206526e+02 2.5872472036e+02 1.7300000000e+02 0.0000e+00 -1.0000e+00
       -6  1    1    2    0  502 -9.3126946411e+01 -5.0694166028e+01 -6.6675878813e+02 6.9694964536e+02 1.7300000000e+02 0.0000e+00 1.0000e+00
       21  1    1    2  504  503 -5.3357983072e+00 +2.6971232741e+01 -2.7773494239e+02 2.7909248711e+02 0.0000000000e+00 0.0000e+00 -1.0000e+00
       21  1    1    2  505  504 +2.1024414412e+01 +2.4644092510e+01 -4.1349624670e+01 5.2527599958e+01 0.0000000000e+00 0.0000e+00 -1.0000e+00
<mgrwt>
<rscale>  4 0.19712490E+03</rscale>
<asrwt>0</asrwt>
<pdfrwt beam="1">  1       21 0.96422335E-02 0.19712490E+03</pdfrwt>
<pdfrwt beam="2">  1       21 0.18840306E+00 0.19712490E+03</pdfrwt>
<totfact> 0.13779930E+04</totfact>
</mgrwt>
</event>
<event>
 6      1 +2.5168241e+02 1.92462800e+02 7.54677100e-03 1.16820100e-01
       21 -1    0    0  504  502 +0.0000000000e+00 +0.0000000000e+00 +2.5136355404e+02 2.5136355404e+02 0.0000000000e+00 0.0000e+00 1.0000e+00
       21 -1    0    0  501  503 -0.0000000000e+00 -0.0000000000e+00 -5.8964768130e+02 5.8964768130e+02 0.0000000000e+00 0.0000e+00 1.0000e+00
        6  1    1    2  501    0 -5.9860660316e+01 +4.2134132469e+00 -3.6629116193e+02 4.0951100939e+02 1.7300000000e+02 0.0000e+00 1.0000e+00
       -6  1    1    2    0  505 +6.8936059091e+01 -1.0734324868e+01 +1.3604030550e+02 2.3087522755e+02 1.7300000000e+02 0.0000e+00 1.0000e+00
       21  1    1    2  504  503 -2.9256451523e+01 +1.0941133549e+01 -1.5033622945e+02 1.5354683405e+02 0.0000000000e+00 0.0000e+00 1.0000e+00
       21  1    1    2  505  502 +2.0181052747e+01 -4.4202219279e+00 +4.2302958623e+01 4.7078164367e+01 0.0000000000e+00 0.0000e+00 1.0000e+00
<mgrwt>
<rscale>  4 0.19246278E+03</rscale>
<asrwt>0</asrwt>
<pdfrwt beam="1">  1       21 0.38671316E-01 0.19246278E+03</pdfrwt>
<pdfrwt beam="2">  1       21 0.90715027E-01 0.19246278E+03</pdfrwt>
<totfact> 0.66523202E+03</totfact>
</mgrwt>
</event>
<event>
 6      1 +2.5168241e+02 2.25208100e+02 7.54677100e-03 1.15832300e-01
       21 -1    0    0  501  502 +0.0000000000e+00 +0.0000000000e+00 +2.3436682544e+02 2.3436682544e+02 0.0000000000e+00 0.0000e+00 -1.0000e+00
       21 -1    0    0  505  503 -0.0000000000e+00 -0.0000000000e+00 -4.2324566449e+02 4.2324566449e+02 0.0000000000e+00 0.0000e+00 1.0000e+00
        6  1    1    2  501    0 -1.3674677610e+02 +6.8238913403e+01 -2.3577867620e+01 2.3203694947e+02 1.7300000000e+02 0.0000e+00 -1.0000e+00
       -6  1    1    2    0  504 +1.3676808378e+02 -2.3952238742e+01 -2.3247715649e+01 2.2304410946e+02 1.7300000000e+02 0.0000e+00 1.0000e+00
       21  1    1    2  504  503 +5.5510943636e+01 +1.9712345899e+01 -6.8321311194e+01 9.0209993944e+01 0.0000000000e+00 0.0000e+00 1.0000e+00
       21  1    1    2  505  502 -5.5532251317e+01 -6.3999020561e+01 -7.3731944586e+01 1.1232143705e+02 0.0000000000e+00 0.0000e+00 -1.0000e+00
<mgrwt>
<rscale>  4 0.22520813E+03</rscale>
<asrwt>0</asrwt>
<pdfrwt beam="1">  1       21 0.36056435E-01 0.22520813E+03</pdfrwt>
<pdfrwt beam="2">  1       21 0.65114717E-01 0.22520813E+03</pdfrwt>
<totfact> 0.15789850E+04</totfact>
</mgrwt>
</event>
<event>
 6      1 +2.5168241e+02 2.36768500e+02 7.54677100e-03 1.05831300e-01
       21 -1    0    0  504  502 +0.0000000000e+00 +0.0000000000e+00 +2.4764761941e+02 2.4764761941e+02 0.0000000000e+00 0.0000e+00 -1.0000e+00
       21 -1    0    0  501  503 -0.0000000000e+00 -0.0000000000e+00 -4.6110209695e+02 4.6110209695e+02 0.0000000000e+00 0.0000e+00 -1.0000e+00
        6  1    1    2  501    0 -1.2628068815e+02 -1.0612062250e+02 -1.6120623452e+02 2.8831380260e+02 1.7300000000e+02 0.0000e+00 -1.0000e+00
       -6  1    1    2    0  505 +2.6771153565e+01 +1.6496200341e+02 +1.0965230640e+01 2.4078702938e+02 1.7300000000e+02 0.0000e+00 -1.0000e+00
       21  1    1    2  504  503 -2.3328746927e+01 -1.1316558327e+01 -3.7277663970e+01 4.5408359986e+01 0.0000000000e+00 0.0000e+00 -1.0000e+00
       21  1    1    2  505  502 +1.2283828152e+02 -4.7524822584e+01 -2.5935809697e+01 1.3424052440e+02 0.0000000000e+00 0.0000e+00 -1.0000e+00
<mgrwt>
<rscale>  4 0.23676847E+03</rscale>
<asrwt>0</asrwt>
<pdfrwt beam="1">  1       21 0.38099634E-01 0.23676847E+03</pdfrwt>
<pdfrwt beam="2">  1       21 0.70938784E-01 0.23676847E+03</pdfrwt>
<totfact> 0.11627096E+04</totfact>
</mgrwt>
</event>
<event>
 6      1 +2.5168241e+02 3.04381600e+02 7.54677100e-03 1.06249800e-01
       21 -1    0    0  503  502 +0.0000000000e+00 +0.0000000000e+00 +3.9882557970e+02 3.9882557970e+02 0.0000000000e+00 0.0000e+00 1.0000e+00
       21 -1    0    0  501  503 -0.0000000000e+00 -0.0000000000e+00 -5.8454692839e+02 5.8454692839e+02 0.0000000000e+00 0.0000e+00 -1.0000e+00
        6  1    1    2  501    0 +9.1922996131e+01 -1.8799097508e+02 -2.0097025020e+02 3.3779947512e+02 1.7300000000e+02 0.0000e+00 -1.0000e+00
       -6  1    1    2    0  504 +1.6111228931e+02 +7.7624092429e+01 -1.6435481277e+02 2.9820156601e+02 1.7300000000e+02 0.0000e+00 1.0000e+00
       21  1    1    2  504  505 -1.0595047898e+02 +7.3958492263e+01 +2.6374103272e+01 1.3187477354e+02 0.0000000000e+00 0.0000e+00 -1.0000e+00
       21  1    1    2  505  502 -1.4708480646e+02 +3.6408390385e+01 +1.5322961101e+02 2.1549669341e+02 0.0000000000e+00 0.0000e+00 1.0000e+00
<mgrwt>
<rscale>  4 0.28942456E+03</rscale>
<asrwt>0</asrwt>
<pdfrwt beam="1">  1       21 0.61357782E-01 0.30438163E+03</pdfrwt>
<pdfrwt beam="2">  1       21 0.89930296E-01 0.30438163E+03</pdfrwt>
<totfact> 0.24017929E+03</totfact>
</mgrwt>
</event>
<event>
 6      1 +2.5168241e+02 2.29307000e+02 7.54677100e-03 1.09842800e-01
       21 -1    0    0  505  502 +0.0000000000e+00 +0.0000000000e+00 +2.7065284476e+02 2.7065284476e+02 0.0000000000e+00 0.0000e+00 1.0000e+00
       21 -1    0    0  502  503 -0.0000000000e+00 -0.0000000000e+00 -2.9756692924e+02 2.9756692924e+02 0.0000000000e+00 0.0000e+00 1.0000e+00
        6  1    1    2  501    0 +1.3387068057e+00 +1.1849025150e+02 +7.1911256637e+01 2.2167986076e+02 1.7300000000e+02 0.0000e+00 1.0000e+00
       -6  1    1    2    0  503 +1.9748761328e+01 -1.6507075579e+02 -1.3352663876e+02 2.7458465225e+02 1.7300000000e+02 0.0000e+00 1.0000e+00
       21  1    1    2  504  501 +4.4462497026e+00 +3.4500974310e+01 +1.8897202915e+01 3.9587758749e+01 0.0000000000e+00 0.0000e+00 1.0000e+00
       21  1    1    2  505  504 -2.5533717836e+01 +1.2079529981e+01 +1.5804094724e+01 3.2367502238e+01 0.0000000000e+00 0.0000e+00 1.0000e+00
<mgrwt>
<rscale>  4 0.22930700E+03</rscale>
<asrwt>0</asrwt>
<pdfrwt beam="1">  1       21 0.41638899E-01 0.22930700E+03</pdfrwt>
<pdfrwt beam="2">  1       21 0.45779528E-01 0.22930700E+03</pdfrwt>
<totfact> 0.24897595E+04</totfact>
</mgrwt>
</event>
<event>
 6      1 +2.5168241e+02 1.76757000e+02 7.54677100e-03 1.11671100e-01
       21 -1    0    0  503  502 +0.0000000000e+00 +0.0000000000e+00 +2.1550673358e+02 2.1550673358e+02 0.0000000000e+00 0.0000e+00 -1.0000e+00
       21 -1    0    0  501  503 -0.0000000000e+00 -0.0000000000e+00 -5.4973791612e+02 5.4973791612e+02 0.0000000000e+00 0.0000e+00 1.0000e+00
        6  1    1    2  501    0 +3.3999888068e+01 -3.3522192439e+01 -1.7926046309e+02 2.5365930577e+02 1.7300000000e+02 0.0000e+00 1.0000e+00
       -6  1    1    2    0  504 -2.2637425956e+01 -6.6153325552e+01 -2.8689916695e+02 3.4224092031e+02 1.7300000000e+02 0.0000e+00 -1.0000e+00
       21  1    1    2  504  505 -1.0217275167e+01 +6.8086515667e+01 +1.1351585729e+02 1.3276300759e+02 0.0000000000e+00 0.0000e+00 -1.0000e+00
       21  1    1    2  505  502 -1.1451869449e+00 +3.1589002325e+01 +1.8412590217e+01 3.6581416040e+01 0.0000000000e+00 0.0000e+00 -1.0000e+00
<mgrwt>
<rscale>  4 0.17675701E+03</rscale>
<asrwt>0</asrwt>
<pdfrwt beam="1">  1       21 0.33154882E-01 0.17675701E+03</pdfrwt>
<pdfrwt beam="2">  1       21 0.84575065E-01 0.17675701E+03</pdfrwt>
<totfact> 0.10735218E+04</totfact>
</mgrwt>
</event>
<event>
 6      1 +2.5168241e+02 2.89015800e+02 7.54677100e-03 1.11910500e-01
       21 -1    0    0  501  502 +0.0000000000e+00 +0.0000000000e+00 +4.1701683762e+02 4.1701683762e+02 0.0000000000e+00 0.0000e+00 1.0000e+00
       21 -1    0    0  504  503 -0.0000000000e+00 -0.0000000000e+00 -8.2228008867e+02 8.2228008867e+02 0.0000000000e+00 0.0000e+00 -1.0000e+00
        6  1    1    2  501    0 -5.8658670876e+01 -2.3312293032e+02 -1.2775894920e+02 3.2254997971e+02 1.7300000000e+02 0.0000e+00 -1.0000e+00
       -6  1    1    2    0  503 +3.7199271341e+00 +2.3033423555e+02 +2.5259224355e+02 3.8314428017e+02 1.7300000000e+02 0.0000e+00 1.0000e+00
       21  1    1    2  504  505 +2.4512614260e+01 -1.0537979739e+01 -1.8553547664e+02 1.8744420601e+02 0.0000000000e+00 0.0000e+00 -1.0000e+00
       21  1    1    2  505  502 +3.0426129482e+01 +1.3326674506e+01 -3.4456106876e+02 3.4615846041e+02 0.0000000000e+00 0.0000e+00 -1.0000e+00
<mgrwt>
<rscale>  4 0.28901585E+03</rscale>
<asrwt>0</asrwt>
<pdfrwt beam="1">  1       21 0.64156437E-01 0.28901585E+03</pdfrwt>
<pdfrwt beam="2">  1       21 0.12650463E+00 0.28901585E+03</pdfrwt>
<totfact> 0.95696447E+02</totfact>
</mgrwt>
</event>
<event>
 6      1 +2.5168241e+02 1.80078500e+02 7.54677100e-03 1.16820100e-01
       21 -1    0    0  505  502 +0.0000000000e+00 +0.0000000000e+00 +1.6039578193e+02 1.6039578193e+02 0.0000000000e+00 0.0000e+00 1.0000e+00
       21 -1    0    0  504  503 -0.0000000000e+00 -0.0000000000e+00 -1.1550288549e+03 1.1550288549e+03 0.0000000000e+00 0.0000e+00 1.0000e+00
        6  1    1    2  501    0 -5.3791388870e+01 +4.3068417355e+01 -1.8023087788e+02 2.5915356728e+02 1.7300000000e+02 0.0000e+00 1.0000e+00
       -6  1    1    2    0  503 -1.9982476752e+00 -4.1291141740e+01 -7.3449805704e+02 7.5572835542e+02 1.7300000000e+02 0.0000e+00 1.0000e+00
       21  1    1    2  504  502 +2.6435983467e+01 -2.7817851704e+00 -1.8731340014e+02 1.8919014092e+02 0.0000000000e+00 0.0000e+00 -1.0000e+00
       21  1    1    2  505  501 +2.9353653078e+01 +1.0045095558e+00 +1.0740926207e+02 1.1135257324e+02 0.0000000000e+00 0.0000e+00 1.0000e+00
<mgrwt>
<rscale>  4 0.18007850E+03</rscale>
<asrwt>0</asrwt>
<pdfrwt beam="1">  1       21 0.24676274E-01 0.18007850E+03</pdfrwt>
<pdfrwt beam="2">  1       21 0.17769675E+00 0.18007850E+03</pdfrwt>
<totfact> 0.29659031E+03</totfact>
</mgrwt>
</event>
<event>
 6      1 +2.5168241e+02 2.78540700e+02 7.54677100e-03 1.09842800e-01
       21 -1    0    0  504  502 +0.0000000000e+00 +0.0000000000e+00 +1.6795701936e+02 1.6795701936e+02 0.0000000000e+00 0.0000e+00 -1.0000e+00
       21 -1    0    0  505  503 -0.0000000000e+00 -0.0000000000e+00 -1.4739001943e+03 1.4739001943e+03 0.0000000000e+00 0.0000e+00 -1.0000e+00
        6  1    1    2  501    0 -2.2278032669e+02 -2.5283515799e+01 -4.1192011220e+01 2.8617496732e+02 1.7300000000e+02 0.0000e+00 -1.0000e+00
       -6  1    1    2    0  503 +2.1739379283e+02 -1.6172885544e+01 -1.2357468562e+03 1.2666968525e+03 1.7300000000e+02 0.0000e+00 -1.0000e+00
       21  1    1    2  504  501 -1.8142732636e+01 -1.4316448373e+01 -3.8292801542e+00 2.3426114232e+01 0.0000000000e+00 0.0000e+00 -1.0000e+00
       21  1    1    2  505  502 +2.3529266498e+01 +5.5772849715e+01 -2.5175027361e+01 6.5559279663e+01 0.0000000000e+00 0.0000e+00 -1.0000e+00
<mgrwt>
<rscale>  4 0.27854065E+03</rscale>
<asrwt>0</asrwt>
<pdfrwt beam="1">  1       21 0.25839541E-01 0.27854065E+03</pdfrwt>
<pdfrwt beam="2">  1       21 0.22675388E+00 0.27854065E+03</pdfrwt>
<totfact> 0.11973252E+03</totfact>
</mgrwt>
</event>
<event>
 6      1 +2.5168241e+02 1.85307800e+02 7.54677100e-03 1.07240600e-01
       21 -1    0    0  505  502 +0.0000000000e+00 +0.0000000000e+00 +1.2829689234e+03 1.2829689234e+03 0.0000000000e+00 0.0000e+00 1.0000e+00
       21 -1    0    0  504  503 -0.0000000000e+00 -0.0000000000e+00 -1.8108478886e+02 1.8108478886e+02 0.0000000000e+00 0.0000e+00 1.0000e+00
        6  1    1    2  501    0 +1.1171269637e+02 -5.7324299230e+00 +3.4530342343e+02 4.0208959389e+02 1.7300000000e+02 0.0000e+00 1.0000e+00
       -6  1    1    2    0  502 -1.2763974618e+01 +7.1095087458e+01 +8.5867480306e+02 8.7890206958e+02 1.7300000000e+02 0.0000e+00 1.0000e+00
       21  1    1    2  504  501 -2.8007181477e+01 -4.4719680364e+01 +4.9477627055e+00 5.2997475241e+01 0.0000000000e+00 0.0000e+00 1.0000e+00
       21  1    1    2  505  503 -7.0941540271e+01 -2.0642977171e+01 -1.0704185466e+02 1.3006457355e+02 0.0000000000e+00 0.0000e+00 1.0000e+00
<mgrwt>
<rscale>  4 0.18530776E+03</rscale>
<asrwt>0</asrwt>
<pdfrwt beam="1">  1       21 0.19737983E+00 0.18530776E+03</pdfrwt>
<pdfrwt beam="2">  1       21 0.27859199E-01 0.18530776E+03</pdfrwt>
<totfact> 0.17309507E+03</totfact>
</mgrwt>
</event>
<event>
 6      1 +2.5168241e+02 2.94080300e+02 7.54677100e-03 1.17132900e-01
       21 -1    0    0  503  502 +0.0000000000e+00 +0.0000000000e+00 +5.8061602631e+02 5.8061602631e+02 0.0000000000e+00 0.0000e+00 -1.0000e+00
       21 -1    0    0  504  503 -0.0000000000e+00 -0.0000000000e+00 -4.2822203043e+02 4.2822203043e+02 0.0000000000e+00 0.0000e+00 -1.0000e+00
        6  1    1    2  501    0 +9.6392323834e+01 -2.7347623169e+02 -4.9040728742e+01 3.4119601766e+02 1.7300000000e+02 0.0000e+00 -1.0000e+00
       -6  1    1    2    0  505 +1.9021001085e+01 +1.1417626029e+02 +2.1522349268e+02 2.9941304030e+02 1.7300000000e+02 0.0000e+00 -1.0000e+00
       21  1    1    2  504  501 -1.0916748792e+02 +1.8753003211e+02 -1.2697289739e+02 2.5141036183e+02 0.0000000000e+00 0.0000e+00 -1.0000e+00
       21  1    1    2  505  502 -6.2458370006e+00 -2.8230060717e+01 +1.1318412933e+02 1.1681863696e+02 0.0000000000e+00 0.0000e+00 -1.0000e+00
<mgrwt>
<rscale>  4 0.26696562E+03</rscale>
<asrwt>0</asrwt>
<pdfrwt beam="1">  1       21 0.89325542E-01 0.29408028E+03</pdfrwt>
<pdfrwt beam="2">  1       21 0.65880313E-01 0.29408028E+03</pdfrwt>
<totfact> 0.21001161E+03</totfact>
</mgrwt>
</event>
<event>
 6      1 +2.5168241e+02 4.01849900e+02 7.54677100e-03 1.03924000e-01
       21 -1    0    0  504  502 +0.0000000000e+00 +0.0000000000e+00 +2.0297823187e+03 2.0297823187e+03 0.0000000000e+00 0.0000e+00 -1.0000e+00
       21 -1    0    0  501  503 -0.0000000000e+00 -0.0000000000e+00 -2.7111917522e+02 2.7111917522e+02 0.0000000000e+00 0.0000e+00 -1.0000e+00
        6  1    1    2  501    0 +6.1312696201e+00 -7.8698973407e+01 -5.8980148637e+01 1.9909489902e+02 1.7300000000e+02 0.0000e+00 -1.0000e+00
       -6  1    1    2    0  505 +1.4379138638e+02 -2.6353051825e+02 +1.2636412698e+02 3.6881050613e+02 1.7300000000e+02 0.0000e+00 1.0000e+00
       21  1    1    2  504  503 -1.2633115584e+02 +3.1534688906e+02 +1.4623410691e+03 1.5012809942e+03 0.0000000000e+00 0.0000e+00 -1.0000e+00
       21  1    1    2  505  502 -2.3591500155e+01 +2.6882602596e+01 +2.2893809605e+02 2.3171509451e+02 0.0000000000e+00 0.0000e+00 1.0000e+00
<mgrwt>
<rscale>  4 0.33329333E+03</rscale>
<asrwt>0</asrwt>
<pdfrwt beam="1">  1       21 0.31227419E+00 0.40184989E+03</pdfrwt>
<pdfrwt beam="2">  1       21 0.41710644E-01 0.40184989E+03</pdfrwt>
<totfact> 0.12823119E+02</totfact>
</mgrwt>
</event>
<event>
 6      1 +2.5168241e+02 1.80961600e+02 7.54677100e-03 1.11471900e-01
       21 -1    0    0  503  502 +0.0000000000e+00 +0.0000000000e+00 +3.1025073241e+02 3.1025073241e+02 0.0000000000e+00 0.0000e+00 -1.0000e+00
       21 -1    0    0  501  503 -0.0000000000e+00 -0.0000000000e+00 -2.0337530166e+02 2.0337530166e+02 0.0000000000e+00 0.0000e+00 -1.0000e+00
        6  1    1    2  501    0 +9.0356117679e+00 -4.2027267042e+01 +6.2408691751e+01 1.8886973887e+02 1.7300000000e+02 0.0000e+00 -1.0000e+00
       -6  1    1    2    0  504 +9.5194501333e+01 +3.1160661510e+01 +2.2464544725e+01 2.0116320657e+02 1.7300000000e+02 0.0000e+00 -1.0000e+00
       21  1    1    2  504  505 -8.2072175875e+01 +1.2890370064e+01 -1.0987015924e+01 8.3801659960e+01 0.0000000000e+00 0.0000e+00 -1.0000e+00
       21  1    1    2  505  502 -2.2157937226e+01 -2.0237645317e+00 +3.2989210198e+01 3.9791428656e+01 0.0000000000e+00 0.0000e+00 1.0000e+00
<mgrwt>
<rscale>  4 0.18096156E+03</rscale>
<asrwt>0</asrwt>
<pdfrwt beam="1">  1       21 0.47730882E-01 0.18096156E+03</pdfrwt>
<pdfrwt beam="2">  1       21 0.31288508E-01 0.18096156E+03</pdfrwt>
<totfact> 0.41430880E+04</totfact>
</mgrwt>
</event>
<event>
 6      1 +2.5168241e+02 1.94542200e+02 7.54677100e-03 1.16820100e-01
       21 -1    0    0  505  502 +0.0000000000e+00 +0.0000000000e+00 +6.2909293879e+02 6.2909293879e+02 0.0000000000e+00 0.0000e+00 -1.0000e+00
       21 -1    0    0  504  503 -0.0000000000e+00 -0.0000000000e+00 -1.7922776924e+02 1.7922776924e+02 0.0000000000e+00 0.0000e+00 -1.0000e+00
        6  1    1    2  501    0 -8.4988664048e+01 -7.1915131546e+00 +1.0766431220e+02 2.2089679717e+02 1.7300000000e+02 0.0000e+00 -1.0000e+00
       -6  1    1    2    0  503 +1.0442758667e+02 -1.8319598961e+01 +2.3557073216e+02 3.1090721834e+02 1.7300000000e+02 0.0000e+00 -1.0000e+00
       21  1    1    2  504  502 +1.4829522298e+01 +2.5596857294e+01 -8.0765947270e+01 8.6013092453e+01 0.0000000000e+00 0.0000e+00 -1.0000e+00
       21  1    1    2  505  501 -3.4268444925e+01 -8.5745178469e-02 +1.8739607245e+02 1.9050360007e+02 0.0000000000e+00 0.0000e+00 1.0000e+00
<mgrwt>
<rscale>  4 0.19454222E+03</rscale>
<asrwt>0</asrwt>
<pdfrwt beam="1">  1       21 0.96783528E-01 0.19454222E+03</pdfrwt>
<pdfrwt beam="2">  1       21 0.27573503E-01 0.19454222E+03</pdfrwt>
<totfact> 0.11115483E+04</totfact>
</mgrwt>
</event>
<event>
 6      1 +2.5168241e+02 1.99166800e+02 7.54677100e-03 1.11671100e-01
       21 -1    0    0  503  502 +0.0000000000e+00 +0.0000000000e+00 +3.1480486809e+02 3.1480486809e+02 0.0000000000e+00 0.0000e+00 -1.0000e+00
       21 -1    0    0  501  503 -0.0000000000e+00 -0.0000000000e+00 -7.0966190064e+02 7.0966190064e+02 0.0000000000e+00 0.0000e+00 1.0000e+00
        6  1    1    2  501    0 +9.9806066444e+01 -1.0676582371e+02 -1.3157765108e+02 2.6191958742e+02 1.7300000000e+02 0.0000e+00 1.0000e+00
       -6  1    1    2    0  504 -4.7106795930e+01 +7.1447892707e+01 -4.8384460931e+02 5.2092077858e+02 1.7300000000e+02 0.0000e+00 1.0000e+00
       21  1    1    2  504  505 -5.7068849310e+01 +1.1074410137e+01 +7.9843525533e+01 9.8764794795e+01 0.0000000000e+00 0.0000e+00 -1.0000e+00
       21  1    1    2  505  502 +4.3695787956e+00 +2.4243520868e+01 +1.4072170230e+02 1.4286160793e+02 0.0000000000e+00 0.0000e+00 -1.0000e+00
<mgrwt>
<rscale>  4 0.19916683E+03</rscale>
<asrwt>0</asrwt>
<pdfrwt beam="1">  1       21 0.48431518E-01 0.19916683E+03</pdfrwt>
<pdfrwt beam="2">  1       21 0.10917875E+00 0.19916683E+03</pdfrwt>
<totfact> 0.26924072E+03</totfact>
</mgrwt>
</event>
<event>
 6      1 +2.5168241e+02 2.48330300e+02 7.54677100e-03 1.15942100e-01
       21 -1    0    0  504  502 +0.0000000000e+00 +0.0000000000e+00 +5.5475423797e+02 5.5475423797e+02 0.0000000000e+00 0.0000e+00 1.0000e+00
       21 -1    0    0  501  503 -0.0000000000e+00 -0.0000000000e+00 -8.0367045246e+02 8.0367045246e+02 0.0000000000e+00 0.0000e+00 -1.0000e+00
        6  1    1    2  501    0 -1.2192690750e+02 -9.1430010684e+01 -4.2189444514e+02 4.8078013735e+02 1.7300000000e+02 0.0000e+00 -1.0000e+00
       -6  1    1    2    0  502 +1.8163827103e+02 +4.9089275360e+00 +4.8422792327e+02 5.4536431928e+02 1.7300000000e+02 0.0000e+00 1.0000e+00
       21  1    1    2  504  505 -2.1529620676e+01 +6.9029736522e+01 -2.2528650252e+02 2.3660650310e+02 0.0000000000e+00 0.0000e+00 -1.0000e+00
       21  1    1    2  505  503 -3.8181742845e+01 +1.7491346625e+01 -8.5963190097e+01 9.5673730696e+01 0.0000000000e+00 0.0000e+00 -1.0000e+00
<mgrwt>
<rscale>  4 0.24833034E+03</rscale>
<asrwt>0</asrwt>
<pdfrwt beam="1">  1       21 0.85346806E-01 0.24833034E+03</pdfrwt>
<pdfrwt beam="2">  1       21 0.12364161E+00 0.24833034E+03</pdfrwt>
<totfact> 0.55091175E+02</totfact>
</mgrwt>
</event>
<event>
 6      1 +2.5168241e+02 3.00306000e+02 7.54677100e-03 1.17132900e-01
       21 -1    0    0  505  502 +0.0000000000e+00 +0.0000000000e+00 +1.0721520803e+03 1.0721520803e+03 0.0000000000e+00 0.0000e+00 1.0000e+00
       21 -1    0    0  504  503 -0.0000000000e+00 -0.0000000000e+00 -2.9736262907e+02 2.9736262907e+02 0.0000000000e+00 0.0000e+00 1.0000e+00
        6  1    1    2  501    0 -4.7941564559e+01 +1.9002677167e+02 +3.1515841644e+02 4.0946598762e+02 1.7300000000e+02 0.0000e+00 1.0000e+00
       -6  1    1    2    0  502 +5.3027688452e+01 +4.1728404100e+01 +3.2119071857e+02 3.7100629799e+02 1.7300000000e+02 0.0000e+00 1.0000e+00
       21  1    1    2  504  501 -4.3795682356e+01 +6.0307980330e+01 -1.5576714074e+02 1.7268038805e+02 0.0000000000e+00 0.0000e+00 1.0000e+00
       21  1    1    2  505  503 +3.8709558464e+01 -2.9206315610e+02 +2.9420745697e+02 4.1636203574e+02 0.0000000000e+00 0.0000e+00 1.0000e+00
<mgrwt>
<rscale>  4 0.26655769E+03</rscale>
<asrwt>0</asrwt>
<pdfrwt beam="1">  1       21 0.16494647E+00 0.30030599E+03</pdfrwt>
<pdfrwt beam="2">  1       21 0.45748098E-01 0.30030599E+03</pdfrwt>
<totfact> 0.96793264E+02</totfact>
</mgrwt>
</event>
<event>
 6      1 +2.5168241e+02 1.87546900e+02 7.54677100e-03 1.16820100e-01
       21 -1    0    0  504  502 +0.0000000000e+00 +0.0000000000e+00 +2.0125237571e+02 2.0125237571e+02 0.0000000000e+00 0.0000e+00 1.0000e+00
       21 -1    0    0  501  503 -0.0000000000e+00 -0.0000000000e+00 -3.7834228612e+02 3.7834228612e+02 0.0000000000e+00 0.0000e+00 1.0000e+00
        6  1    1    2  501    0 -8.5397920616e+01 +1.4008868184e+01 -2.2366301382e+02 2.9570795894e+02 1.7300000000e+02 0.0000e+00 1.0000e+00
       -6  1    1    2    0  505 +3.6754269777e+01 +4.5760398993e+01 +1.4227377067e+01 1.8323839314e+02 1.7300000000e+02 0.0000e+00 1.0000e+00
       21  1    1    2  504  503 +2.6427524256e+01 -4.0845494914e+01 -9.5622380520e+00 4.9580287309e+01 0.0000000000e+00 0.0000e+00 1.0000e+00
       21  1    1    2  505  502 +2.2216126583e+01 -1.8923772263e+01 +4.1907964391e+01 5.1068022445e+01 0.0000000000e+00 0.0000e+00 1.0000e+00
<mgrwt>
<rscale>  4 0.18754694E+03</rscale>
<asrwt>0</asrwt>
<pdfrwt beam="1">  1       21 0.30961904E-01 0.18754694E+03</pdfrwt>
<pdfrwt beam="2">  1       21 0.58206505E-01 0.18754694E+03</pdfrwt>
<totfact> 0.27783625E+04</totfact>
</mgrwt>
</event>
<event>
 6      1 +2.5168241e+02 1.91723100e+02 7.54677100e-03 1.16820100e-01
       21 -1    0    0  505  502 +0.0000000000e+00 +0.0000000000e+00 +3.0908377256e+02 3.0908377256e+02 0.0000000000e+00 0.0000e+00 1.0000e+00
       21 -1    0    0  501  503 -0.0000000000e+00 -0.0000000000e+00 -1.6356473580e+03 1.6356473580e+03 0.0000000000e+00 0.0000e+00 -1.0000e+00
        6  1    1    2  501    0 -8.1838014639e+01 +1.4108558980e+02 -2.0425263522e+02 3.1344974603e+02 1.7300000000e+02 0.0000e+00 -1.0000e+00
       -6  1    1    2    0  502 +5.0822846151e+01 +1.4284769063e+01 -7.3329958514e+01 1.9517504742e+02 1.7300000000e+02 0.0000e+00 1.0000e+00
       21  1    1    2  504  503 -6.7128962416e+00 -1.3882668154e+02 -1.2364129629e+03 1.2442005165e+03 0.0000000000e+00 0.0000e+00 -1.0000e+00
       21  1    1    2  505  504 +3.7728064730e+01 -1.6543677323e+01 +1.8743197123e+02 1.9190582056e+02 0.0000000000e+00 0.0000e+00 1.0000e+00
<mgrwt>
<rscale>  4 0.19172306E+03</rscale>
<asrwt>0</asrwt>
<pdfrwt beam="1">  1       21 0.47551350E-01 0.19172306E+03</pdfrwt>
<pdfrwt beam="2">  1       21 0.25163806E+00 0.19172306E+03</pdfrwt>
<totfact> 0.27542631E+02</totfact>
</mgrwt>
</event>
<event>
 6      1 +2.5168241e+02 2.01006900e+02 7.54677100e-03 1.15832300e-01
       21 -1    0    0  501  502 +0.0000000000e+00 +0.0000000000e+00 +1.3855292379e+03 1.3855292379e+03 0.0000000000e+00 0.0000e+00 1.0000e+00
       21 -1    0    0  505  503 -0.0000000000e+00 -0.0000000000e+00 -1.3426932171e+02 1.3426932171e+02 0.0000000000e+00 0.0000e+00 1.0000e+00
        6  1    1    2  501    0 -7.2038570756e+01 +8.1912637366e+01 +1.1631383499e+03 1.1809822424e+03 1.7300000000e+02 0.0000e+00 1.0000e+00
       -6  1    1    2    0  504 +2.7179118156e+01 -4.2793614934e+01 +3.2332419110e+01 1.8315125789e+02 1.7300000000e+02 0.0000e+00 1.0000e+00
       21  1    1    2  504  503 +7.5146003415e+01 -9.5289930183e+00 -1.1043323181e+01 7.6548537047e+01 0.0000000000e+00 0.0000e+00 -1.0000e+00
       21  1    1    2  505  502 -3.0286550815e+01 -2.9590029413e+01 +6.6832470318e+01 7.9116522230e+01 0.0000000000e+00 0.0000e+00 1.0000e+00
<mgrwt>
<rscale>  4 0.20100689E+03</rscale>
<asrwt>0</asrwt>
<pdfrwt beam="1">  1       21 0.21315834E+00 0.20100689E+03</pdfrwt>
<pdfrwt beam="2">  1       21 0.20656820E-01 0.20100689E+03</pdfrwt>
<totfact> 0.23887313E+03</totfact>
</mgrwt>
</event>
<event>
 6      1 +2.5168241e+02 1.76078100e+02 7.54677100e-03 1.12068800e-01
       21 -1    0    0  504  502 +0.0000000000e+00 +0.0000000000e+00 +1.2930219352e+03 1.2930219352e+03 0.0000000000e+00 0.0000e+00 1.0000e+00
       21 -1    0    0  502  503 -0.0000000000e+00 -0.0000000000e+00 -1.8165003565e+02 1.8165003565e+02 0.0000000000e+00 0.0000e+00 -1.0000e+00
        6  1    1    2  501    0 +5.7398871666e+00 +4.0288200431e+01 +3.1981805851e+02 3.6588068540e+02 1.7300000000e+02 0.0000e+00 -1.0000e+00
       -6  1    1    2    0  505 -3.9051111991e+01 +4.0417028507e+01 +7.9968572677e+02 8.2011266734e+02 1.7300000000e+02 0.0000e+00 1.0000e+00
       21  1    1    2  504  501 +1.2855020897e+02 -8.0149041805e+01 -7.8159843535e+01 1.7046403219e+02 0.0000000000e+00 0.0000e+00 -1.0000e+00
       21  1    1    2  505  503 -9.5238984146e+01 -5.5618713269e-01 +7.0027957772e+01 1.1821458588e+02 0.0000000000e+00 0.0000e+00 1.0000e+00
<mgrwt>
<rscale>  4 0.17607812E+03</rscale>
<asrwt>0</asrwt>
<pdfrwt beam="1">  1       21 0.19892645E+00 0.17607812E+03</pdfrwt>
<pdfrwt beam="2">  1       21 0.27946160E-01 0.17607812E+03</pdfrwt>
<totfact> 0.16989889E+03</totfact>
</mgrwt>
</event>
<event>
 6      1 +2.5168241e+02 2.40531200e+02 7.54677100e-03 1.17132900e-01
       21 -1    0    0  505  502 +0.0000000000e+00 +0.0000000000e+00 +4.7480083894e+02 4.7480083894e+02 0.0000000000e+00 0.0000e+00 1.0000e+00
       21 -1    0    0  504  503 -0.0000000000e+00 -0.0000000000e+00 -2.7298527904e+02 2.7298527904e+02 0.0000000000e+00 0.0000e+00 1.0000e+00
        6  1    1    2  501    0 -1.0708431391e+02 +8.1592626538e+01 -3.2126709211e+01 2.2155255005e+02 1.7300000000e+02 0.0000e+00 1.0000e+00
       -6  1    1    2    0  502 +1.9354946428e+02 -4.4682778979e+01 +2.0351799584e+02 3.3287613386e+02 1.7300000000e+02 0.0000e+00 1.0000e+00
       21  1    1    2  504  501 -6.3849108974e+01 -3.5081754294e+01 -6.3554813915e+01 9.6678087346e+01 0.0000000000e+00 0.0000e+00 1.0000e+00
       21  1    1    2  505  503 -2.2616041394e+01 -1.8280932649e+00 +9.3979087194e+01 9.6679346725e+01 0.0000000000e+00 0.0000e+00 -1.0000e+00
<mgrwt>
<rscale>  4 0.24053123E+03</rscale>
<asrwt>0</asrwt>
<pdfrwt beam="1">  1       21 0.73046283E-01 0.24053123E+03</pdfrwt>
<pdfrwt beam="2">  1       21 0.41997735E-01 0.24053123E+03</pdfrwt>
<totfact> 0.89184491E+03</totfact>
</mgrwt>
</event>
<event>
 6      1 +2.5168241e+02 1.79897900e+02 7.54677100e-03 1.15942100e-01
       21 -1    0    0  504  502 +0.0000000000e+00 +0.0000000000e+00 +8.0018539164e+01 8.0018539164e+01 0.0000000000e+00 0.0000e+00 -1.0000e+00
       21 -1    0    0  501  503 -0.0000000000e+00 -0.0000000000e+00 -1.1870023575e+03 1.1870023575e+03 0.0000000000e+00 0.0000e+00 -1.0000e+00
        6  1    1    2  501    0 +8.3305700035e-01 +4.5498042853e+01 -4.9608921249e+02 5.2735592596e+02 1.7300000000e+02 0.0000e+00 -1.0000e+00
       -6  1    1    2    0  502 -4.7921812364e+01 +5.5550761330e+01 -9.3371803541e+01 2.0983250673e+02 1.7300000000e+02 0.0000e+00 -1.0000e+00
       21  1    1    2  504  505 +4.0677855606e+01 -8.1834982945e+01 -4.5579557961e+02 4.6486693017e+02 0.0000000000e+00 0.0000e+00 -1.0000e+00
       21  1    1    2  505  503 +6.4108997578e+00 -1.9213821239e+01 -6.1727222723e+01 6.4965533843e+01 0.0000000000e+00 0.0000e+00 1.0000e+00
<mgrwt>
<rscale>  4 0.17989788E+03</rscale>
<asrwt>0</asrwt>
<pdfrwt beam="1">  1       21 0.12310545E-01 0.17989788E+03</pdfrwt>
<pdfrwt beam="2">  1       21 0.18261574E+00 0.17989788E+03</pdfrwt>
<totfact> 0.98961294E+03</totfact>
</mgrwt>
</event>
<event>
 6      1 +2.5168241e+02 2.67124300e+02 7.54677100e-03 1.06249800e-01
       21 -1    0    0  503  502 +0.0000000000e+00 +0.0000000000e+00 +2.3762723376e+03 2.3762723376e+03 0.0000000000e+00 0.0000e+00 1.0000e+00
       21 -1    0    0  504  503 -0.0000000000e+00 -0.0000000000e+00 -1.4615234295e+02 1.4615234295e+02 0.0000000000e+00 0.0000e+00 -1.0000e+00
        6  1    1    2  501    0 +7.9595024872e+01 +2.7656732541e+02 +2.2145391045e+02 4.0223834716e+02 1.7300000000e+02 0.0000e+00 -1.0000e+00
       -6  1    1    2    0  502 -4.7126278685e+01 -1.3178954797e+02 +1.8344224677e+02 2.8839110423e+02 1.7300000000e+02 0.0000e+00 -1.0000e+00
       21  1    1    2  504  505 -1.6820554394e+01 -1.3160182192e+02 +1.4667198722e+03 1.4727081022e+03 0.0000000000e+00 0.0000e+00 1.0000e+00
       21  1    1    2  505  501 -1.5648191793e+01 -1.3175955521e+01 +3.5850396524e+02 3.5908712703e+02 0.0000000000e+00 0.0000e+00 -1.0000e+00
<mgrwt>
<rscale>  4 0.26712430E+03</rscale>
<asrwt>0</asrwt>
<pdfrwt beam="1">  1       21 0.36558033E+00 0.26712430E+03</pdfrwt>
<pdfrwt beam="2">  1       21 0.22484978E-01 0.26712430E+03</pdfrwt>
<totfact> 0.23580658E+02</totfact>
</mgrwt>
</event>
<event>
 6      1 +2.5168241e+02 2.24647300e+02 7.54677100e-03 1.06249800e-01
       21 -1    0    0  503  502 +0.0000000000e+00 +0.0000000000e+00 +1.2181441160e+03 1.2181441160e+03 0.0000000000e+00 0.0000e+00 1.0000e+00
       21 -1    0    0  501  503 -0.0000000000e+00 -0.0000000000e+00 -5.5348188960e+02 5.5348188960e+02 0.0000000000e+00 0.0000e+00 1.0000e+00
        6  1    1    2  501    0 -1.3154753697e+02 -6.1323776785e+01 -1.9898480893e+02 3.0098058786e+02 1.7300000000e+02 0.0000e+00 1.0000e+00
       -6  1    1    2    0  505 +1.5093843138e+02 -1.5704896753e+02 -2.1175364460e+02 3.4959318396e+02 1.7300000000e+02 0.0000e+00 -1.0000e+00
       21  1    1    2  504  502 -1.1682706999e+02 +1.5615120887e+02 +7.7536899492e+02 7.9951788135e+02 0.0000000000e+00 0.0000e+00 1.0000e+00
       21  1    1    2  505  504 +9.7436175582e+01 +6.2221535443e+01 +3.0003168500e+02 3.2153435243e+02 0.0000000000e+00 0.0000e+00 -1.0000e+00
<mgrwt>
<rscale>  4 0.22464731E+03</rscale>
<asrwt>0</asrwt>
<pdfrwt beam="1">  1       21 0.18740679E+00 0.22464731E+03</pdfrwt>
<pdfrwt beam="2">  1       21 0.85151060E-01 0.22464731E+03</pdfrwt>
<totfact> 0.18604190E+02</totfact>
</mgrwt>
</event>
<event>
 6      1 +2.5168241e+02 2.67899200e+02 7.54677100e-03 1.12989000e-01
       21 -1    0    0  505  502 +0.0000000000e+00 +0.0000000000e+00 +7.5326510192e+02 7.5326510192e+02 0.0000000000e+00 0.0000e+00 1.0000e+00
       21 -1    0    0  504  503 -0.0000000000e+00 -0.0000000000e+00 -4.0878255577e+02 4.0878255577e+02 0.0000000000e+00 0.0000e+00 -1.0000e+00
        6  1    1    2  501    0 -1.6498880443e+02 +7.6469215457e+01 +3.7728176531e+02 4.5314388105e+02 1.7300000000e+02 0.0000e+00 1.0000e+00
       -6  1    1    2    0  502 +2.5036027360e+02 -4.3980143041e+01 +2.4244276503e+02 3.9156355026e+02 1.7300000000e+02 0.0000e+00 -1.0000e+00
       21  1    1    2  504  501 +2.2686980435e+01 -1.1784180532e+01 -5.6789221087e+00 2.6188091729e+01 0.0000000000e+00 0.0000e+00 1.0000e+00
       21  1    1    2  505  503 -1.0805844960e+02 -2.0704891884e+01 -2.6956306208e+02 2.9115213465e+02 0.0000000000e+00 0.0000e+00 -1.0000e+00
<mgrwt>
<rscale>  4 0.26789916E+03</rscale>
<asrwt>0</asrwt>
<pdfrwt beam="1">  1       21 0.11588694E+00 0.26789916E+03</pdfrwt>
<pdfrwt beam="2">  1       21 0.62889624E-01 0.26789916E+03</pdfrwt>
<totfact> 0.12642814E+03</totfact>
</mgrwt>
</event>
<event>
 6      1 +2.5168241e+02 2.62485600e+02 7.54677100e-03 1.17132900e-01
       21 -1    0    0  503  502 +0.0000000000e+00 +0.0000000000e+00 +6.0399615399e+02 6.0399615399e+02 0.0000000000e+00 0.0000e+00 1.0000e+00
       21 -1    0    0  504  503 -0.0000000000e+00 -0.0000000000e+00 -1.3373039986e+03 1.3373039986e+03 0.0000000000e+00 0.0000e+00 1.0000e+00
        6  1    1    2  501    0 +1.7904920198e+02 -5.0782581727e+01 +6.2083205984e+01 2.6157372154e+02 1.7300000000e+02 0.0000e+00 1.0000e+00
       -6  1    1    2    0  505 -2.4504096391e+02 +4.7647391048e+01 +1.3173423940e+02 3.3105627572e+02 1.7300000000e+02 0.0000e+00 1.0000e+00
       21  1    1    2  504  501 -6.2612506617e+01 +2.7548370447e+01 -1.1164253149e+03 1.1185189862e+03 0.0000000000e+00 0.0000e+00 1.0000e+00
       21  1    1    2  505  502 +1.2860426855e+02 -2.4413179767e+01 +1.8930002491e+02 2.3015116916e+02 0.0000000000e+00 0.0000e+00 1.0000e+00
<mgrwt>
<rscale>  4 0.26248562E+03</rscale>
<asrwt>0</asrwt>
<pdfrwt beam="1">  1       21 0.92922486E-01 0.26248562E+03</pdfrwt>
<pdfrwt beam="2">  1       21 0.20573907E+00 0.26248562E+03</pdfrwt>
<totfact> 0.11048942E+02</totfact>
</mgrwt>
</event>
<event>
 6      1 +2.5168241e+02 2.18554800e+02 7.54677100e-03 1.16519500e-01
       21 -1    0    0  505  502 +0.0000000000e+00 +0.0000000000e+00 +1.5663571958e+02 1.5663571958e+02 0.0000000000e+00 0.0000e+00 -1.0000e+00
       21 -1    0    0  504  503 -0.0000000000e+00 -0.0000000000e+00 -8.4100228466e+02 8.4100228466e+02 0.0000000000e+00 0.0000e+00 1.0000e+00
        6  1    1    2  501    0 +1.2678754614e+02 -6.3379274721e+01 -6.7134625216e+02 7.0762052303e+02 1.7300000000e+02 0.0000e+00 1.0000e+00
       -6  1    1    2    0  503 -5.1104541309e+01 +8.0433970001e+01 +2.5104078955e+01 1.9909925277e+02 1.7300000000e+02 0.0000e+00 -1.0000e+00
       21  1    1    2  504  502 -4.3539931165e+01 -1.8384992605e+00 -3.3684273201e+01 5.5079360440e+01 0.0000000000e+00 0.0000e+00 1.0000e+00
       21  1    1    2  505  501 -3.2143073662e+01 -1.5216196019e+01 -4.4401186749e+00 3.5838868001e+01 0.0000000000e+00 0.0000e+00 -1.0000e+00
<mgrwt>
<rscale>  4 0.21855480E+03</rscale>
<asrwt>0</asrwt>
<pdfrwt beam="1">  1       21 0.24097803E-01 0.21855480E+03</pdfrwt>
<pdfrwt beam="2">  1       21 0.12938497E+00 0.21855480E+03</pdfrwt>
<totfact> 0.69698186E+03</totfact>
</mgrwt>
</event>
<event>
 6      1 +2.5168241e+02 1.91837000e+02 7.54677100e-03 1.16820100e-01
       21 -1    0    0  501  502 +0.0000000000e+00 +0.0000000000e+00 +2.3292185281e+02 2.3292185281e+02 0.0000000000e+00 0.0000e+00 1.0000e+00
       21 -1    0    0  504  503 -0.0000000000e+00 -0.0000000000e+00 -2.9274607377e+02 2.9274607377e+02 0.0000000000e+00 0.0000e+00 1.0000e+00
        6  1    1    2  501    0 -1.0713622730e+01 +3.7085549512e+01 +6.1958532817e+01 1.8777108266e+02 1.7300000000e+02 0.0000e+00 1.0000e+00
       -6  1    1    2    0  503 +7.0111998073e+01 -7.4437850463e+01 -1.5024533009e+02 2.5091700833e+02 1.7300000000e+02 0.0000e+00 1.0000e+00
       21  1    1    2  504  505 -1.9741241099e+01 +3.0239380647e+01 -2.4521007061e+00 3.6195987898e+01 0.0000000000e+00 0.0000e+00 1.0000e+00
       21  1    1    2  505  502 -3.9657134244e+01 +7.1129203045e+00 +3.0914677015e+01 5.0783847694e+01 0.0000000000e+00 0.0000e+00 1.0000e+00
<mgrwt>
<rscale>  4 0.19183703E+03</rscale>
<asrwt>0</asrwt>
<pdfrwt beam="1">  1       21 0.35834131E-01 0.19183703E+03</pdfrwt>
<pdfrwt beam="2">  1       21 0.45037857E-01 0.19183703E+03</pdfrwt>
<totfact> 0.35539991E+04</totfact>
</mgrwt>
</event>
<event>
 6      1 +2.5168241e+02 2.38343700e+02 7.54677100e-03 1.09842800e-01
       21 -1    0    0  504  502 +0.0000000000e+00 +0.0000000000e+00 +8.0707494601e+02 8.0707494601e+02 0.0000000000e+00 0.0000e+00 1.0000e+00
       21 -1    0    0  505  503 -0.0000000000e+00 -0.0000000000e+00 -1.9771928895e+02 1.9771928895e+02 0.0000000000e+00 0.0000e+00 1.0000e+00
        6  1    1    2  501    0 +5.7990782321e+01 +1.0914492082e+02 +3.7623956257e+02 4.3215824997e+02 1.7300000000e+02 0.0000e+00 -1.0000e+00
       -6  1    1    2    0  503 -1.3082189474e+02 -1.1602269888e+02 -6.7735060008e+01 2.5513265795e+02 1.7300000000e+02 0.0000e+00 1.0000e+00
       21  1    1    2  504  501 +7.8068060443e+01 -1.3007846923e+01 +2.5983235963e+02 2.7161863201e+02 0.0000000000e+00 0.0000e+00 1.0000e+00
       21  1    1    2  505  502 -5.2369480242e+00 +1.9885624981e+01 +4.1018794868e+01 4.5884695029e+01 0.0000000000e+00 0.0000e+00 -1.0000e+00
<mgrwt>
<rscale>  4 0.23834373E+03</rscale>
<asrwt>0</asrwt>
<pdfrwt beam="1">  1       21 0.12416537E+00 0.23834373E+03</pdfrwt>
<pdfrwt beam="2">  1       21 0.30418353E-01 0.23834373E+03</pdfrwt>
<totfact> 0.48609651E+03</totfact>
</mgrwt>
</event>
<event>
 6      1 +2.5168241e+02 1.98655000e+02 7.54677100e-03 1.11910500e-01
       21 -1    0    0  501  502 +0.0000000000e+00 +0.0000000000e+00 +5.8476263977e+02 5.8476263977e+02 0.0000000000e+00 0.0000e+00 1.0000e+00
       21 -1    0    0  504  503 -0.0000000000e+00 -0.0000000000e+00 -3.3824286055e+02 3.3824286055e+02 0.0000000000e+00 0.0000e+00 1.0000e+00
        6  1    1    2  501    0 +2.5861407079e+00 -7.8359553077e+01 +3.4348393323e+02 3.9250110837e+02 1.7300000000e+02 0.0000e+00 1.0000e+00
       -6  1    1    2    0  503 +9.9726783305e+01 +1.4925535976e+02 +1.1885329536e+02 2.7618417685e+02 1.7300000000e+02 0.0000e+00 1.0000e+00
       21  1    1    2  504  505 -7.3098934948e+01 -6.7027548583e+01 -1.9321155449e+02 2.1717930691e+02 0.0000000000e+00 0.0000e+00 1.0000e+00
       21  1    1    2  505  502 -2.9213989065e+01 -3.8682580971e+00 -2.2605894882e+01 3.7140908190e+01 0.0000000000e+00 0.0000e+00 1.0000e+00
<mgrwt>
<rscale>  4 0.19865502E+03</rscale>
<asrwt>0</asrwt>
<pdfrwt beam="1">  1       21 0.89963483E-01 0.19865502E+03</pdfrwt>
<pdfrwt beam="2">  1       21 0.52037363E-01 0.19865502E+03</pdfrwt>
<totfact> 0.36676049E+03</totfact>
</mgrwt>
</event>
<event>
 6      1 +2.5168241e+02 2.77027100e+02 7.54677100e-03 1.17132900e-01
       21 -1    0    0  505  502 +0.0000000000e+00 +0.0000000000e+00 +8.6880991430e+02 8.6880991430e+02 0.0000000000e+00 0.0000e+00 1.0000e+00
       21 -1    0    0  504  503 -0.0000000000e+00 -0.0000000000e+00 -2.4897315411e+03 2.4897315411e+03 0.0000000000e+00 0.0000e+00 -1.0000e+00
        6  1    1    2  501    0 +9.1112708121e+01 -1.9761533318e+02 +2.6059346399e+02 3.8103976035e+02 1.7300000000e+02 0.0000e+00 1.0000e+00
       -6  1    1    2    0  502 -9.5115942944e+01 +1.4619680235e+02 -2.2133050233e+02 3.3066106345e+02 1.7300000000e+02 0.0000e+00 1.0000e+00
       21  1    1    2  504  501 -2.6054231053e+01 +4.7508196892e+01 -2.1527058094e+03 2.1533875994e+03 0.0000000000e+00 0.0000e+00 -1.0000e+00
       21  1    1    2  505  503 +3.0057465876e+01 +3.9103339353e+00 +4.9252122088e+02 4.9345303220e+02 0.0000000000e+00 0.0000e+00 1.0000e+00
<mgrwt>
<rscale>  4 0.27702712E+03</rscale>
<asrwt>0</asrwt>
<pdfrwt beam="1">  1       21 0.13366307E+00 0.27702712E+03</pdfrwt>
<pdfrwt beam="2">  1       21 0.38303562E+00 0.27702712E+03</pdfrwt>
<totfact> 0.38166155E+00</totfact>
</mgrwt>
</event>
<event>
 6      1 +2.5168241e+02 3.44008500e+02 7.54677100e-03 1.16820100e-01
       21 -1    0    0  504  502 +0.0000000000e+00 +0.0000000000e+00 +8.1789207005e+02 8.1789207005e+02 0.0000000000e+00 0.0000e+00 -1.0000e+00
       21 -1    0    0  501  503 -0.0000000000e+00 -0.0000000000e+00 -6.5796844758e+02 6.5796844758e+02 0.0000000000e+00 0.0000e+00 1.0000e+00
        6  1    1    2  501    0 -2.1956844101e+02 +2.2061103112e+02 -2.1050019200e+02 4.1366515223e+02 1.7300000000e+02 0.0000e+00 -1.0000e+00
       -6  1    1    2    0  505 +1.5169605272e+02 -2.7425217347e+02 -3.1637816849e+01 3.5938266307e+02 1.7300000000e+02 0.0000e+00 1.0000e+00
       21  1    1    2  504  503 +4.3693282123e+00 -5.4282961149e+01 -1.3803531165e+02 1.4838961608e+02 0.0000000000e+00 0.0000e+00 1.0000e+00
       21  1    1    2  505  502 +6.3503060074e+01 +1.0792410350e+02 +5.4009694297e+02 5.5442308624e+02 0.0000000000e+00 0.0000e+00 -1.0000e+00
<mgrwt>
<rscale>  4 0.34400853E+03</rscale>
<asrwt>0</asrwt>
<pdfrwt beam="1">  1       21 0.12582955E+00 0.34400853E+03</pdfrwt>
<pdfrwt beam="2">  1       21 0.10122591E+00 0.34400853E+03</pdfrwt>
<totfact> 0.32805201E+02</totfact>
</mgrwt>
</event>
<event>
 6      1 +2.5168241e+02 2.40540800e+02 7.54677100e-03 1.16820100e-01
       21 -1    0    0  504  502 +0.0000000000e+00 +0.0000000000e+00 +3.4965495661e+02 3.4965495661e+02 0.0000000000e+00 0.0000e+00 -1.0000e+00
       21 -1    0    0  501  503 -0.0000000000e+00 -0.0000000000e+00 -2.5883635656e+02 2.5883635656e+02 0.0000000000e+00 0.0000e+00 -1.0000e+00
        6  1    1    2  501    0 +1.4974972825e+02 -7.4214298830e+01 +4.0503810546e+01 2.4393093681e+02 1.7300000000e+02 0.0000e+00 -1.0000e+00
       -6  1    1    2    0  505 -1.6582085494e+02 +5.4389026215e+01 -1.6178312753e+00 2.4573632105e+02 1.7300000000e+02 0.0000e+00 -1.0000e+00
       21  1    1    2  504  503 +2.8951427680e+01 -1.1567976394e+01 -2.1539864982e+01 3.7894181954e+01 0.0000000000e+00 0.0000e+00 -1.0000e+00
       21  1    1    2  505  502 -1.2880300993e+01 +3.1393249009e+01 +7.3472485760e+01 8.0929873352e+01 0.0000000000e+00 0.0000e+00 1.0000e+00
<mgrwt>
<rscale>  4 0.24054079E+03</rscale>
<asrwt>0</asrwt>
<pdfrwt beam="1">  1       21 0.53793070E-01 0.24054079E+03</pdfrwt>
<pdfrwt beam="2">  1       21 0.39820978E-01 0.24054079E+03</pdfrwt>
<totfact> 0.19342780E+04</totfact>
</mgrwt>
</event>
<event>
 6      1 +2.5168241e+02 3.08179000e+02 7.54677100e-03 1.17132900e-01
       21 -1    0    0  505  502 +0.0000000000e+00 +0.0000000000e+00 +2.7955804496e+02 2.7955804496e+02 0.0000000000e+00 0.0000e+00 -1.0000e+00
       21 -1    0    0  504  503 -0.0000000000e+00 -0.0000000000e+00 -9.7318508713e+02 9.7318508713e+02 0.0000000000e+00 0.0000e+00 -1.0000e+00
        6  1    1    2  501    0 -1.9773351797e+02 +2.1820211507e+02 +5.4705190955e+01 3.4587911916e+02 1.7300000000e+02 0.0000e+00 -1.0000e+00
       -6  1    1    2    0  502 +8.5765915381e+01 -1.7439273159e+02 -1.7482729323e+02 3.1346801995e+02 1.7300000000e+02 0.0000e+00 -1.0000e+00
       21  1    1    2  504  501 +1.2558498449e+01 -2.2512871119e+01 -3.0824538929e+02 3.0932145943e+02 0.0000000000e+00 0.0000e+00 -1.0000e+00
       21  1    1    2  505  503 +9.9409104143e+01 -2.1296512356e+01 -2.6525955061e+02 2.8407453355e+02 0.0000000000e+00 0.0000e+00 -1.0000e+00
<mgrwt>
<rscale>  4 0.30817904E+03</rscale>
<asrwt>0</asrwt>
<pdfrwt beam="1">  1       21 0.43008929E-01 0.30817904E+03</pdfrwt>
<pdfrwt beam="2">  1       21 0.14972079E+00 0.30817904E+03</pdfrwt>
<totfact> 0.14250943E+03</totfact>
</mgrwt>
</event>
<event>
 6      1 +2.5168241e+02 1.76289300e+02 7.54677100e-03 1.11910500e-01
       21 -1    0    0  501  502 +0.0000000000e+00 +0.0000000000e+00 +4.3917073634e+02 4.3917073634e+02 0.0000000000e+00 0.0000e+00 1.0000e+00
       21 -1    0    0  504  503 -0.0000000000e+00 -0.0000000000e+00 -4.0812401790e+02 4.0812401790e+02 0.0000000000e+00 0.0000e+00 1.0000e+00
        6  1    1    2  501    0 +4.5267048878e+01 -3.1119134940e+00 +1.8048734373e+02 2.5409342960e+02 1.7300000000e+02 0.0000e+00 1.0000e+00
       -6  1    1    2    0  503 -1.7290509366e+01 +2.4113874258e+01 +1.8520671639e+02 2.5516850990e+02 1.7300000000e+02 0.0000e+00 1.0000e+00
       21  1    1    2  504  505 -2.0370455010e+01 +3.3297190339e+00 -1.9389010609e+02 1.9498568078e+02 0.0000000000e+00 0.0000e+00 1.0000e+00
       21  1    1    2  505  502 -7.6060845021e+00 -2.4331679798e+01 -1.4075723559e+02 1.4304713396e+02 0.0000000000e+00 0.0000e+00 1.0000e+00
<mgrwt>
<rscale>  4 0.17628929E+03</rscale>
<asrwt>0</asrwt>
<pdfrwt beam="1">  1       21 0.67564728E-01 0.17628929E+03</pdfrwt>
<pdfrwt beam="2">  1       21 0.62788311E-01 0.17628929E+03</pdfrwt>
<totfact> 0.47683295E+03</totfact>
</mgrwt>
</event>
<event>
 6      1 +2.5168241e+02 1.78352600e+02 7.54677100e-03 1.16820100e-01
       21 -1    0    0  505  502 +0.0000000000e+00 +0.0000000000e+00 +6.1501945975e+02 6.1501945975e+02 0.0000000000e+00 0.0000e+00 -1.0000e+00
       21 -1    0    0  501  503 -0.0000000000e+00 -0.0000000000e+00 -1.3076657096e+02 1.3076657096e+02 0.0000000000e+00 0.0000e+00 -1.0000e+00
        6  1    1    2  501    0 -4.4590219615e+01 +3.4609909001e+01 +2.9847644826e+01 1.8440719994e+02 1.7300000000e+02 0.0000e+00 1.0000e+00
       -6  1    1    2    0  502 +4.0683552793e+01 +6.1799705884e+01 +1.7392309918e+02 2.5622763228e+02 1.7300000000e+02 0.0000e+00 -1.0000e+00
       21  1    1    2  504  503 +8.6519032149e+00 -5.2618230523e+01 +5.9826374227e+01 8.0141928264e+01 0.0000000000e+00 0.0000e+00 -1.0000e+00
       21  1    1    2  505  504 -4.7452363924e+00 -4.3791384362e+01 +2.2065577056e+02 2.2500927024e+02 0.0000000000e+00 0.0000e+00 -1.0000e+00
<mgrwt>
<rscale>  4 0.17835265E+03</rscale>
<asrwt>0</asrwt>
<pdfrwt beam="1">  1       21 0.94618377E-01 0.17835265E+03</pdfrwt>
<pdfrwt beam="2">  1       21 0.20117934E-01 0.17835265E+03</pdfrwt>
<totfact> 0.21535709E+04</totfact>
</mgrwt>
</event>
<event>
 6      1 +2.5168241e+02 2.31064600e+02 7.54677100e-03 1.12989000e-01
       21 -1    0    0  503  502 +0.0000000000e+00 +0.0000000000e+00 +6.0537481758e+02 6.0537481758e+02 0.0000000000e+00 0.0000e+00 -1.0000e+00
       21 -1    0    0  504  503 -0.0000000000e+00 -0.0000000000e+00 -7.3578699262e+02 7.3578699262e+02 0.0000000000e+00 0.0000e+00 -1.0000e+00
        6  1    1    2  501    0 -1.5366182209e+02 +1.5853032146e+02 +1.5386035364e+02 3.1991534320e+02 1.7300000000e+02 0.0000e+00 -1.0000e+00
       -6  1    1    2    0  502 +1.1235781618e+02 -6.3683698588e+01 +3.3134585647e+02 3.9547309507e+02 1.7300000000e+02 0.0000e+00 -1.0000e+00
       21  1    1    2  504  505 +1.3283146458e+01 -4.4071292128e+01 -1.6034008837e+02 1.6681626032e+02 0.0000000000e+00 0.0000e+00 -1.0000e+00
       21  1    1    2  505  501 +2.8020859452e+01 -5.0775330749e+01 -4.5527829678e+02 4.5895711160e+02 0.0000000000e+00 0.0000e+00 -1.0000e+00
<mgrwt>
<rscale>  4 0.23106456E+03</rscale>
<asrwt>0</asrwt>
<pdfrwt beam="1">  1       21 0.93134587E-01 0.23106456E+03</pdfrwt>
<pdfrwt beam="2">  1       21 0.11319800E+00 0.23106456E+03</pdfrwt>
<totfact> 0.56840050E+02</totfact>
</mgrwt>
</event>
<event>
 6      1 +2.5168241e+02 2.31689400e+02 7.54677100e-03 1.11910500e-01
       21 -1    0    0  501  502 +0.0000000000e+00 +0.0000000000e+00 +1.3634438608e+02 1.3634438608e+02 0.0000000000e+00 0.0000e+00 -1.0000e+00
       21 -1    0    0  505  503 -0.0000000000e+00 -0.0000000000e+00 -8.1372817047e+02 8.1372817047e+02 0.0000000000e+00 0.0000e+00 -1.0000e+00
        6  1    1    2  501    0 +1.0811873584e+02 -8.6030251060e+01 -3.2062391068e+02 3.8964029211e+02 1.7300000000e+02 0.0000e+00 -1.0000e+00
       -6  1    1    2    0  504 -1.3107933930e+02 +9.2860618974e+01 -4.7089080198e+01 2.4073069855e+02 1.7300000000e+02 0.0000e+00 -1.0000e+00
       21  1    1    2  504  503 -8.2722337012e+00 -2.8835426774e+01 -2.2266546534e+02 2.2467714869e+02 0.0000000000e+00 0.0000e+00 -1.0000e+00
       21  1    1    2  505  502 +3.1232837170e+01 +2.2005058860e+01 -8.7005328172e+01 9.5024417196e+01 0.0000000000e+00 0.0000e+00 -1.0000e+00
<mgrwt>
<rscale>  4 0.23168942E+03</rscale>
<asrwt>0</asrwt>
<pdfrwt beam="1">  1       21 0.20976059E-01 0.23168942E+03</pdfrwt>
<pdfrwt beam="2">  1       21 0.12518895E+00 0.23168942E+03</pdfrwt>
<totfact> 0.97672828E+03</totfact>
</mgrwt>
</event>
<event>
 6      1 +2.5168241e+02 2.22619300e+02 7.54677100e-03 1.16820100e-01
       21 -1    0    0  501  502 +0.0000000000e+00 +0.0000000000e+00 +1.5380010318e+02 1.5380010318e+02 0.0000000000e+00 0.0000e+00 1.0000e+00
       21 -1    0    0  504  503 -0.0000000000e+00 -0.0000000000e+00 -1.1342040571e+03 1.1342040571e+03 0.0000000000e+00 0.0000e+00 1.0000e+00
        6  1    1    2  501    0 -1.2899473421e+02 +5.2476783398e+01 -6.8847580072e+01 2.3251331904e+02 1.7300000000e+02 0.0000e+00 1.0000e+00
       -6  1    1    2    0  503 +7.2879097518e+01 +7.3689957471e+00 -7.2503918940e+02 7.4898363875e+02 1.7300000000e+02 0.0000e+00 1.0000e+00
       21  1    1    2  504  505 +6.7798661703e+01 -9.8913052017e+01 -2.2208823801e+02 2.5239579206e+02 0.0000000000e+00 0.0000e+00 1.0000e+00
       21  1    1    2  505  502 -1.1683025015e+01 +3.9067272872e+01 +3.5571053577e+01 5.4111410403e+01 0.0000000000e+00 0.0000e+00 1.0000e+00
<mgrwt>
<rscale>  4 0.22261926E+03</rscale>
<asrwt>0</asrwt>
<pdfrwt beam="1">  1       21 0.23661554E-01 0.22261926E+03</pdfrwt>
<pdfrwt beam="2">  1       21 0.17449293E+00 0.22261926E+03</pdfrwt>
<totfact> 0.32512362E+03</totfact>
</mgrwt>
</event>
<event>
 6      1 +2.5168241e+02 2.15944300e+02 7.54677100e-03 1.09842800e-01
       21 -1    0    0  503  502 +0.0000000000e+00 +0.0000000000e+00 +1.9175918031e+02 1.9175918031e+02 0.0000000000e+00 0.0000e+00 -1.0000e+00
       21 -1    0    0  501  503 -0.0000000000e+00 -0.0000000000e+00 -1.6379108332e+03 1.6379108332e+03 0.0000000000e+00 0.0000e+00 1.0000e+00
        6  1    1    2  501    0 -1.9396881062e+01 +1.0810891160e+02 -1.1345483387e+03 1.1529062011e+03 1.7300000000e+02 0.0000e+00 1.0000e+00
       -6  1    1    2    0  504 +7.5075599206e+01 -2.5324209007e+02 -3.3086243169e+02 4.5734762543e+02 1.7300000000e+02 0.0000e+00 -1.0000e+00
       21  1    1    2  504  505 -1.1461864097e+01 +5.6485604732e+01 -6.6774537857e+01 8.8209051557e+01 0.0000000000e+00 0.0000e+00 1.0000e+00
       21  1    1    2  505  502 -4.4216854046e+01 +8.8647573739e+01 +8.6033655386e+01 1.3120713536e+02 0.0000000000e+00 0.0000e+00 -1.0000e+00
<mgrwt>
<rscale>  4 0.21594432E+03</rscale>
<asrwt>0</asrwt>
<pdfrwt beam="1">  1       21 0.29501412E-01 0.21594432E+03</pdfrwt>
<pdfrwt beam="2">  1       21 0.25198629E+00 0.21594432E+03</pdfrwt>
<totfact> 0.69257984E+02</totfact>
</mgrwt>
</event>
<event>
 6      1 +2.5168241e+02 2.58567900e+02 7.54677100e-03 1.17132900e-01
       21 -1    0    0  503  502 +0.0000000000e+00 +0.0000000000e+00 +4.0677959868e+02 4.0677959868e+02 0.0000000000e+00 0.0000e+00 1.0000e+00
       21 -1    0    0  504  503 -0.0000000000e+00 -0.0000000000e+00 -3.1704635890e+02 3.1704635890e+02 0.0000000000e+00 0.0000e+00 -1.0000e+00
        6  1    1    2  501    0 -1.8183655457e+02 -8.0657350109e+01 +1.5837557357e+01 2.6410219410e+02 1.7300000000e+02 0.0000e+00 -1.0000e+00
       -6  1    1    2    0  505 +1.5668420563e+02 +9.2307040790e+01 -4.1639367705e+01 2.5442752802e+02 1.7300000000e+02 0.0000e+00 -1.0000e+00
       21  1    1    2  504  501 +5.1547630387e+01 +4.7059322236e+00 -2.7718128716e+01 5.8716255467e+01 0.0000000000e+00 0.0000e+00 1.0000e+00
       21  1    1    2  505  502 -2.6395281443e+01 -1.6355622904e+01 +1.4325317884e+02 1.4657997998e+02 0.0000000000e+00 0.0000e+00 1.0000e+00
<mgrwt>
<rscale>  4 0.25856790E+03</rscale>
<asrwt>0</asrwt>
<pdfrwt beam="1">  1       21 0.62581477E-01 0.25856790E+03</pdfrwt>
<pdfrwt beam="2">  1       21 0.48776363E-01 0.25856790E+03</pdfrwt>
<totfact> 0.91127476E+03</totfact>
</mgrwt>
</event>
<event>
 6      1 +2.5168241e+02 1.76049800e+02 7.54677100e-03 1.11910500e-01
       21 -1    0    0  501  502 +0.0000000000e+00 +0.0000000000e+00 +2.5681121309e+02 2.5681121309e+02 0.0000000000e+00 0.0000e+00 1.0000e+00
       21 -1    0    0  504  503 -0.0000000000e+00 -0.0000000000e+00 -3.7453399178e+02 3.7453399178e+02 0.0000000000e+00 0.0000e+00 1.0000e+00
        6  1    1    2  501    0 +3.3042735478e+01 -1.5953518697e+01 +1.7461921381e+02 2.4853009266e+02 1.7300000000e+02 0.0000e+00 1.0000e+00
       -6  1    1    2    0  503 +7.7924535052e+00 +2.5027644734e+01 -2.1865688446e+02 2.8004810025e+02 1.7300000000e+02 0.0000e+00 1.0000e+00
       21  1    1    2  504  505 -2.5632605490e+01 -2.9976107947e+01 -6.3977900376e+01 7.5158294608e+01 0.0000000000e+00 0.0000e+00 1.0000e+00
       21  1    1    2  505  502 -1.5202583494e+01 +2.0901981910e+01 -9.7072076597e+00 2.7608717341e+01 0.0000000000e+00 0.0000e+00 -1.0000e+00
<mgrwt>
<rscale>  4 0.17604981E+03</rscale>
<asrwt>0</asrwt>
<pdfrwt beam="1">  1       21 0.39509417E-01 0.17604981E+03</pdfrwt>
<pdfrwt beam="2">  1       21 0.57620614E-01 0.17604981E+03</pdfrwt>
<totfact> 0.17629948E+04</totfact>
</mgrwt>
</event>
<event>
 6      1 +2.5168241e+02 3.93997000e+02 7.54677100e-03 1.16820100e-01
       21 -1    0    0  505  502 +0.0000000000e+00 +0.0000000000e+00 +1.6212795415e+03 1.6212795415e+03 0.0000000000e+00 0.0000e+00 1.0000e+00
       21 -1    0    0  501  503 -0.0000000000e+00 -0.0000000000e+00 -1.8717987402e+02 1.8717987402e+02 0.0000000000e+00 0.0000e+00 -1.0000e+00
        6  1    1    2  501    0 +2.1915721229e+02 +3.1469673454e+02 +5.8889918037e+02 7.2373694328e+02 1.7300000000e+02 0.0000e+00 1.0000e+00
       -6  1    1    2    0  502 -2.0423389986e+02 -2.5253246711e+02 +6.0833992909e+02 7.1097862283e+02 1.7300000000e+02 0.0000e+00 -1.0000e+00
       21  1    1    2  504  503 +1.6109374216e+01 -1.2202215717e+01 -6.4037942653e+01 6.7151054387e+01 0.0000000000e+00 0.0000e+00 -1.0000e+00
       21  1    1    2  505  504 -3.1032686646e+01 -4.9962051711e+01 +3.0089850064e+02 3.0659279499e+02 0.0000000000e+00 0.0000e+00 -1.0000e+00
<mgrwt>
<rscale>  4 0.39399700E+03</rscale>
<asrwt>0</asrwt>
<pdfrwt beam="1">  1       21 0.24942761E+00 0.39399700E+03</pdfrwt>
<pdfrwt beam="2">  1       21 0.28796905E-01 0.39399700E+03</pdfrwt>
<totfact> 0.64963408E+02</totfact>
</mgrwt>
</event>
<event>
 6      1 +2.5168241e+02 2.99010500e+02 7.54677100e-03 1.11910500e-01
       21 -1    0    0  501  502 +0.0000000000e+00 +0.0000000000e+00 +2.5220221998e+02 2.5220221998e+02 0.0000000000e+00 0.0000e+00 1.0000e+00
       21 -1    0    0  505  503 -0.0000000000e+00 -0.0000000000e+00 -7.6362184800e+02 7.6362184800e+02 0.0000000000e+00 0.0000e+00 1.0000e+00
        6  1    1    2  501    0 +1.2888213188e+02 +1.9651945876e+02 +5.7895573785e+01 2.9750865374e+02 1.7300000000e+02 0.0000e+00 1.0000e+00
       -6  1    1    2    0  504 -1.0540793375e+02 -2.5564217038e+02 -3.2375944274e+02 4.5957907757e+02 1.7300000000e+02 0.0000e+00 1.0000e+00
       21  1    1    2  504  503 +1.4899595543e+01 +2.8337514005e+01 -1.0813164106e+02 1.1277173602e+02 0.0000000000e+00 0.0000e+00 1.0000e+00
       21  1    1    2  505  502 -3.8373793665e+01 +3.0785197617e+01 -1.3742411801e+02 1.4596460065e+02 0.0000000000e+00 0.0000e+00 1.0000e+00
<mgrwt>
<rscale>  4 0.29901051E+03</rscale>
<asrwt>0</asrwt>
<pdfrwt beam="1">  1       21 0.38800342E-01 0.29901051E+03</pdfrwt>
<pdfrwt beam="2">  1       21 0.11748028E+00 0.29901051E+03</pdfrwt>
<totfact> 0.33101067E+03</totfact>
</mgrwt>
</event>
<event>
 6      1 +2.5168241e+02 1.76167100e+02 7.54677100e-03 1.16820100e-01
       21 -1    0    0  501  502 +0.0000000000e+00 +0.0000000000e+00 +2.6069468509e+03 2.6069468509e+03 0.0000000000e+00 0.0000e+00 -1.0000e+00
       21 -1    0    0  504  503 -0.0000000000e+00 -0.0000000000e+00 -3.3631761419e+01 3.3631761419e+01 0.0000000000e+00 0.0000e+00 -1.0000e+00
        6  1    1    2  501    0 +8.7730527149e-01 +3.5182357723e+01 +1.4840689714e+03 1.4945327965e+03 1.7300000000e+02 0.0000e+00 -1.0000e+00
       -6  1    1    2    0  503 -1.8367924806e+01 +1.9746128503e-02 +4.9203680183e+02 5.2188753138e+02 1.7300000000e+02 0.0000e+00 -1.0000e+00
       21  1    1    2  504  505 -2.1530734589e+01 -3.1298645963e+01 +1.5340760097e+01 4.0969704556e+01 0.0000000000e+00 0.0000e+00 -1.0000e+00
       21  1    1    2  505  502 +3.9021354124e+01 -3.9034578883e+00 +5.8186855621e+02 5.8318857993e+02 0.0000000000e+00 0.0000e+00 -1.0000e+00
<mgrwt>
<rscale>  4 0.17616709E+03</rscale>
<asrwt>0</asrwt>
<pdfrwt beam="1">  1       21 0.40106859E+00 0.17616709E+03</pdfrwt>
<pdfrwt beam="2">  1       21 0.51741192E-02 0.17616709E+03</pdfrwt>
<totfact> 0.22334638E+03</totfact>
</mgrwt>
</event>
<event>
 6      1 +2.5168241e+02 1.79697200e+02 7.54677100e-03 1.17132900e-01
       21 -1    0    0  503  502 +0.0000000000e+00 +0.0000000000e+00 +2.4825925709e+03 2.4825925709e+03 0.0000000000e+00 0.0000e+00 -1.0000e+00
       21 -1    0    0  504  503 -0.0000000000e+00 -0.0000000000e+00 -5.4319275309e+01 5.4319275309e+01 0.0000000000e+00 0.0000e+00 -1.0000e+00
        6  1    1    2  501    0 +3.8490226531e+01 +7.9097845716e+01 +1.4050575752e+03 1.4183983067e+03 1.7300000000e+02 0.0000e+00 -1.0000e+00
       -6  1    1    2    0  505 -5.2073158083e+00 -2.0491758144e+01 +1.7309173063e+02 2.4563545245e+02 1.7300000000e+02 0.0000e+00 -1.0000e+00
       21  1    1    2  504  501 -4.2091157800e-01 -2.6799980060e+01 +5.9366511013e+00 2.7452867319e+01 0.0000000000e+00 0.0000e+00 -1.0000e+00
       21  1    1    2  505  502 -3.2861999145e+01 -3.1806107513e+01 +8.4418733868e+02 8.4542521978e+02 0.0000000000e+00 0.0000e+00 -1.0000e+00
<mgrwt>
<rscale>  4 0.17969725E+03</rscale>
<asrwt>0</asrwt>
<pdfrwt beam="1">  1       21 0.38193723E+00 0.17969725E+03</pdfrwt>
<pdfrwt beam="2">  1       21 0.83568135E-02 0.17969725E+03</pdfrwt>
<totfact> 0.12771842E+03</totfact>
</mgrwt>
</event>
<event>
 6      1 +2.5168241e+02 1.77294000e+02 7.54677100e-03 1.12989000e-01
       21 -1    0    0  503  502 +0.0000000000e+00 +0.0000000000e+00 +7.5203553639e+02 7.5203553639e+02 0.0000000000e+00 0.0000e+00 1.0000e+00
       21 -1    0    0  504  503 -0.0000000000e+00 -0.0000000000e+00 -1.5847318914e+02 1.5847318914e+02 0.0000000000e+00 0.0000e+00 1.0000e+00
        6  1    1    2  501    0 -6.5681765049e+01 +7.4328133587e+01 +3.1189278281e+02 3.7019572347e+02 1.7300000000e+02 0.0000e+00 1.0000e+00
       -6  1    1    2    0  502 +4.0156373148e+00 +6.6070608370e+00 +3.6252178835e+02 4.0175966152e+02 1.7300000000e+02 0.0000e+00 1.0000e+00
       21  1    1    2  504  505 +2.0014485019e+01 -5.2700793139e+01 -2.0521677001e+01 5.9992436481e+01 0.0000000000e+00 0.0000e+00 1.0000e+00
       21  1    1    2  505  501 +4.1651642715e+01 -2.8234401285e+01 -6.0330546915e+01 7.8560904067e+01 0.0000000000e+00 0.0000e+00 1.0000e+00
<mgrwt>
<rscale>  4 0.17729400E+03</rscale>
<asrwt>0</asrwt>
<pdfrwt beam="1">  1       21 0.11569777E+00 0.17729400E+03</pdfrwt>
<pdfrwt beam="2">  1       21 0.24380491E-01 0.17729400E+03</pdfrwt>
<totfact> 0.92835474E+03</totfact>
</mgrwt>
</event>
<event>
 6      1 +2.5168241e+02 2.07062100e+02 7.54677100e-03 1.17132900e-01
       21 -1    0    0  503  502 +0.0000000000e+00 +0.0000000000e+00 +9.9759797096e+02 9.9759797096e+02 0.0000000000e+00 0.0000e+00 -1.0000e+00
       21 -1    0    0  504  503 -0.0000000000e+00 -0.0000000000e+00 -1.2158900731e+03 1.2158900731e+03 0.0000000000e+00 0.0000e+00 -1.0000e+00
        6  1    1    2  501    0 +4.6395502225e+01 +8.5052697920e+01 +2.7484680332e+02 3.3890451361e+02 1.7300000000e+02 0.0000e+00 -1.0000e+00
       -6  1    1    2    0  505 -7.0276939607e+01 -9.7938622359e+01 +5.5495628045e+02 5.9366345281e+02 1.7300000000e+02 0.0000e+00 -1.0000e+00
       21  1    1    2  504  501 +4.9998285415e+01 +8.3059984296e+00 -1.1624383758e+03 1.1635427777e+03 0.0000000000e+00 0.0000e+00 -1.0000e+00
       21  1    1    2  505  502 -2.6116848034e+01 +4.5799260089e+00 +1.1434318984e+02 1.1737729992e+02 0.0000000000e+00 0.0000e+00 1.0000e+00
<mgrwt>
<rscale>  4 0.20706206E+03</rscale>
<asrwt>0</asrwt>
<pdfrwt beam="1">  1       21 0.15347661E+00 0.20706206E+03</pdfrwt>
<pdfrwt beam="2">  1       21 0.18706001E+00 0.20706206E+03</pdfrwt>
<totfact> 0.44893604E+01</totfact>
</mgrwt>
</event>
<event>
 6      1 +2.5168241e+02 3.53245500e+02 7.54677100e-03 1.15942100e-01
       21 -1    0    0  503  502 +0.0000000000e+00 +0.0000000000e+00 +8.7609495772e+01 8.7609495772e+01 0.0000000000e+00 0.0000e+00 -1.0000e+00
       21 -1    0    0  501  503 -0.0000000000e+00 -0.0000000000e+00 -4.0281614248e+03 4.0281614248e+03 0.0000000000e+00 0.0000e+00 1.0000e+00
        6  1    1    2  501    0 -2.3545084265e+02 +1.6736168034e+02 -4.3718917888e+02 5.5182461841e+02 1.7300000000e+02 0.0000e+00 -1.0000e+00
       -6  1    1    2    0  505 -3.5108808491e+01 +1.4100385268e+02 -1.0986097046e+03 1.1216001953e+03 1.7300000000e+02 0.0000e+00 1.0000e+00
       21  1    1    2  504  502 +1.0021652570e+02 -3.9944131549e+01 -5.3686121836e+02 5.4759369376e+02 0.0000000000e+00 0.0000e+00 1.0000e+00
       21  1    1    2  505  504 +1.7034312544e+02 -2.6842140146e+02 -1.8678918272e+03 1.8947524132e+03 0.0000000000e+00 0.0000e+00 1.0000e+00
<mgrwt>
<rscale>  4 0.31590047E+03</rscale>
<asrwt>0</asrwt>
<pdfrwt beam="1">  1       21 0.13478386E-01 0.35324551E+03</pdfrwt>
<pdfrwt beam="2">  1       21 0.61971703E+00 0.35324551E+03</pdfrwt>
<totfact> 0.90640642E+00</totfact>
</mgrwt>
</event>
<event>
 6      1 +2.5168241e+02 2.73335500e+02 7.54677100e-03 1.17132900e-01
       21 -1    0    0  505  502 +0.0000000000e+00 +0.0000000000e+00 +3.0168376787e+02 3.0168376787e+02 0.0000000000e+00 0.0000e+00 -1.0000e+00
       21 -1    0    0  504  503 -0.0000000000e+00 -0.0000000000e+00 -6.1231042243e+02 6.1231042243e+02 0.0000000000e+00 0.0000e+00 -1.0000e+00
        6  1    1    2  501    0 -1.7113853878e+02 +5.8885571450e+01 -9.8845460295e+01 2.6917528676e+02 1.7300000000e+02 0.0000e+00 -1.0000e+00
       -6  1    1    2    0  502 +2.3702420362e+02 +1.3260470587e+02 +1.0664328924e+01 3.2219126157e+02 1.7300000000e+02 0.0000e+00 -1.0000e+00
       21  1    1    2  504  501 -3.1357863514e+01 -2.7039149687e+01 -1.1732986965e+02 1.2442157985e+02 0.0000000000e+00 0.0000e+00 -1.0000e+00
       21  1    1    2  505  503 -3.4527801327e+01 -1.6445112763e+02 -1.0511565354e+02 1.9820606212e+02 0.0000000000e+00 0.0000e+00 -1.0000e+00
<mgrwt>
<rscale>  4 0.27333551E+03</rscale>
<asrwt>0</asrwt>
<pdfrwt beam="1">  1       21 0.46412888E-01 0.27333551E+03</pdfrwt>
<pdfrwt beam="2">  1       21 0.94201603E-01 0.27333551E+03</pdfrwt>
<totfact> 0.39703861E+03</totfact>
</mgrwt>
</event>
<event>
 6      1 +2.5168241e+02 1.90285300e+02 7.54677100e-03 1.11671100e-01
       21 -1    0    0  503  502 +0.0000000000e+00 +0.0000000000e+00 +1.4594623040e+03 1.4594623040e+03 0.0000000000e+00 0.0000e+00 1.0000e+00
       21 -1    0    0  501  503 -0.0000000000e+00 -0.0000000000e+00 -2.5098280094e+02 2.5098280094e+02 0.0000000000e+00 0.0000e+00 -1.0000e+00
        6  1    1    2  501    0 +7.5238701769e+01 -3.9282286934e+01 -8.2480412145e+01 2.0960910929e+02 1.7300000000e+02 0.0000e+00 -1.0000e+00
       -6  1    1    2    0  504 -2.0696665600e+01 +8.7354260695e+01 +2.5431134558e+00 1.9492200044e+02 1.7300000000e+02 0.0000e+00 1.0000e+00
       21  1    1    2  504  505 -2.8904509776e+01 -4.2299992594e+01 +6.7630254232e+01 8.4844630628e+01 0.0000000000e+00 0.0000e+00 1.0000e+00
       21  1    1    2  505  502 -2.5637526393e+01 -5.7719811661e+00 +1.2207865475e+03 1.2210693645e+03 0.0000000000e+00 0.0000e+00 1.0000e+00
<mgrwt>
<rscale>  4 0.19028531E+03</rscale>
<asrwt>0</asrwt>
<pdfrwt beam="1">  1       21 0.22453266E+00 0.19028531E+03</pdfrwt>
<pdfrwt beam="2">  1       21 0.38612739E-01 0.19028531E+03</pdfrwt>
<totfact> 0.61225300E+02</totfact>
</mgrwt>
</event>
<event>
 6      1 +2.5168241e+02 2.07628700e+02 7.54677100e-03 1.16820100e-01
       21 -1    0    0  505  502 +0.0000000000e+00 +0.0000000000e+00 +2.8129997595e+02 2.8129997595e+02 0.0000000000e+00 0.0000e+00 1.0000e+00
       21 -1    0    0  501  503 -0.0000000000e+00 -0.0000000000e+00 -5.5923426791e+02 5.5923426791e+02 0.0000000000e+00 0.0000e+00 1.0000e+00
        6  1    1    2  501    0 +5.7436352498e+01 +1.3615686593e+01 -8.0167524495e+01 1.9959998370e+02 1.7300000000e+02 0.0000e+00 1.0000e+00
       -6  1    1    2    0  502 -2.5046031021e+00 -1.9041781492e+02 +6.4784935958e+01 2.6531359785e+02 1.7300000000e+02 0.0000e+00 1.0000e+00
       21  1    1    2  504  503 -2.7325079655e+01 +1.4721107597e+02 -2.9024145571e+02 3.2658515502e+02 0.0000000000e+00 0.0000e+00 1.0000e+00
       21  1    1    2  505  504 -2.7606669742e+01 +2.9591052361e+01 +2.7689752285e+01 4.9035507295e+01 0.0000000000e+00 0.0000e+00 1.0000e+00
<mgrwt>
<rscale>  4 0.20762873E+03</rscale>
<asrwt>0</asrwt>
<pdfrwt beam="1">  1       21 0.43276920E-01 0.20762873E+03</pdfrwt>
<pdfrwt beam="2">  1       21 0.86036041E-01 0.20762873E+03</pdfrwt>
<totfact> 0.59151567E+03</totfact>
</mgrwt>
</event>
<event>
 6      1 +2.5168241e+02 1.79951100e+02 7.54677100e-03 1.11471900e-01
       21 -1    0    0  503  502 +0.0000000000e+00 +0.0000000000e+00 +1.2560972214e+02 1.2560972214e+02 0.0000000000e+00 0.0000e+00 -1.0000e+00
       21 -1    0    0  501  503 -0.0000000000e+00 -0.0000000000e+00 -5.2046183145e+02 5.2046183145e+02 0.0000000000e+00 0.0000e+00 1.0000e+00
        6  1    1    2  501    0 -7.7515177762e+01 +1.3277231528e+01 -1.2847573819e+02 2.2939028525e+02 1.7300000000e+02 0.0000e+00 -1.0000e+00
       -6  1    1    2    0  504 +4.1701057665e+01 -6.4896739132e+00 -2.7334301792e+02 3.2623074583e+02 1.7300000000e+02 0.0000e+00 1.0000e+00
       21  1    1    2  504  505 -1.9416393856e+01 +9.7960401124e+00 -1.7395668936e+01 2.7849022424e+01 0.0000000000e+00 0.0000e+00 1.0000e+00
       21  1    1    2  505  502 +5.5230513953e+01 -1.6583597727e+01 +2.4362315746e+01 6.2601500091e+01 0.0000000000e+00 0.0000e+00 1.0000e+00
<mgrwt>
<rscale>  4 0.17995111E+03</rscale>
<asrwt>0</asrwt>
<pdfrwt beam="1">  1       21 0.19324573E-01 0.17995111E+03</pdfrwt>
<pdfrwt beam="2">  1       21 0.80071051E-01 0.17995111E+03</pdfrwt>
<totfact> 0.34010420E+04</totfact>
</mgrwt>
</event>
<event>
 6      1 +2.5168241e+02 1.95034200e+02 7.54677100e-03 1.05831300e-01
       21 -1    0    0  504  502 +0.0000000000e+00 +0.0000000000e+00 +5.5968608804e+02 5.5968608804e+02 0.0000000000e+00 0.0000e+00 1.0000e+00
       21 -1    0    0  501  503 -0.0000000000e+00 -0.0000000000e+00 -1.7711413156e+02 1.7711413156e+02 0.0000000000e+00 0.0000e+00 1.0000e+00
        6  1    1    2  501    0 -7.9562512027e+01 -2.4288419840e+01 +3.4722252063e+02 3.9675256709e+02 1.7300000000e+02 0.0000e+00 1.0000e+00
       -6  1    1    2    0  505 +4.8246032354e+01 +7.4582410844e+01 -3.6643571662e+01 1.9789382757e+02 1.7300000000e+02 0.0000e+00 1.0000e+00
       21  1    1    2  504  503 +5.0664089891e+01 -5.6206654704e+01 +9.2548599962e+00 7.6234444125e+01 0.0000000000e+00 0.0000e+00 1.0000e+00
       21  1    1    2  505  502 -1.9347610219e+01 +5.9126637007e+00 +6.2738147514e+01 6.5919380813e+01 0.0000000000e+00 0.0000e+00 -1.0000e+00
<mgrwt>
<rscale>  4 0.19503423E+03</rscale>
<asrwt>0</asrwt>
<pdfrwt beam="1">  1       21 0.86105551E-01 0.19503423E+03</pdfrwt>
<pdfrwt beam="2">  1       21 0.27248328E-01 0.19503423E+03</pdfrwt>
<totfact> 0.14915274E+04</totfact>
</mgrwt>
</event>
<event>
 6      1 +2.5168241e+02 3.06960500e+02 7.54677100e-03 1.06249800e-01
       21 -1    0    0  504  502 +0.0000000000e+00 +0.0000000000e+00 +1.1660333953e+03 1.1660333953e+03 0.0000000000e+00 0.0000e+00 1.0000e+00
       21 -1    0    0  502  503 -0.0000000000e+00 -0.0000000000e+00 -2.0712385406e+02 2.0712385406e+02 0.0000000000e+00 0.0000e+00 -1.0000e+00
        6  1    1    2  501    0 -3.4466003909e+02 -3.4818480987e+01 +1.4098593155e+02 4.1207875711e+02 1.7300000000e+02 0.0000e+00 -1.0000e+00
       -6  1    1    2    0  503 +1.6736034598e+02 -8.1242620065e+00 +2.0401479447e+02 3.1563669844e+02 1.7300000000e+02 0.0000e+00 1.0000e+00
       21  1    1    2  504  505 +3.9985666575e+01 -2.1542138930e+01 +1.0497268818e+02 1.1437736902e+02 0.0000000000e+00 0.0000e+00 1.0000e+00
       21  1    1    2  505  501 +1.3731402654e+02 +6.4484881924e+01 +5.0893612708e+02 5.3106442484e+02 0.0000000000e+00 0.0000e+00 1.0000e+00
<mgrwt>
<rscale>  4 0.30696050E+03</rscale>
<asrwt>0</asrwt>
<pdfrwt beam="1">  1       21 0.17938975E+00 0.30696050E+03</pdfrwt>
<pdfrwt beam="2">  1       21 0.31865209E-01 0.30696050E+03</pdfrwt>
<totfact> 0.15847903E+03</totfact>
</mgrwt>
</event>
<event>
 6      1 +2.5168241e+02 1.85360800e+02 7.54677100e-03 1.17132900e-01
       21 -1    0    0  505  502 +0.0000000000e+00 +0.0000000000e+00 +2.2316663468e+01 2.2316663468e+01 0.0000000000e+00 0.0000e+00 1.0000e+00
       21 -1    0    0  504  503 -0.0000000000e+00 -0.0000000000e+00 -2.2638877350e+03 2.2638877350e+03 0.0000000000e+00 0.0000e+00 -1.0000e+00
        6  1    1    2  501    0 -7.2151450723e+00 +7.1511181368e+01 -8.9526185982e+02 9.1465223174e+02 1.7300000000e+02 0.0000e+00 -1.0000e+00
       -6  1    1    2    0  502 +6.2911513226e+00 -6.1126352453e+01 -8.5647229034e+02 8.7592796146e+02 1.7300000000e+02 0.0000e+00 -1.0000e+00
       21  1    1    2  504  501 -2.6942273598e+01 +1.0814112860e+01 -3.5936999552e+02 3.6054073948e+02 0.0000000000e+00 0.0000e+00 1.0000e+00
       21  1    1    2  505  503 +2.7866267347e+01 -2.1198941775e+01 -1.3046692587e+02 1.3508346581e+02 0.0000000000e+00 0.0000e+00 -1.0000e+00
<mgrwt>
<rscale>  4 0.18536084E+03</rscale>
<asrwt>0</asrwt>
<pdfrwt beam="1">  1       21 0.34333327E-02 0.18536084E+03</pdfrwt>
<pdfrwt beam="2">  1       21 0.34829044E+00 0.18536084E+03</pdfrwt>
<totfact> 0.91337283E+03</totfact>
</mgrwt>
</event>
<event>
 6      1 +2.5168241e+02 2.52268100e+02 7.54677100e-03 1.16820100e-01
       21 -1    0    0  501  502 +0.0000000000e+00 +0.0000000000e+00 +8.0719884634e+02 8.0719884634e+02 0.0000000000e+00 0.0000e+00 -1.0000e+00
       21 -1    0    0  504  503 -0.0000000000e+00 -0.0000000000e+00 -8.2901990082e+02 8.2901990082e+02 0.0000000000e+00 0.0000e+00 1.0000e+00
        6  1    1    2  501    0 +1.7872172074e+01 +2.4574980584e+02 +1.8711275778e+02 3.5447505656e+02 1.7300000000e+02 0.0000e+00 -1.0000e+00
       -6  1    1    2    0  503 -5.0391662461e+00 -1.9294758899e+02 -5.7952275306e+02 6.3484627006e+02 1.7300000000e+02 0.0000e+00 1.0000e+00
       21  1    1    2  504  505 -2.2488892064e+01 +1.9903312405e+01 -1.3383814301e+02 1.3716610600e+02 0.0000000000e+00 0.0000e+00 -1.0000e+00
       21  1    1    2  505  502 +9.6558862365e+00 -7.2705529256e+01 +5.0442708382e+02 5.0973131453e+02 0.0000000000e+00 0.0000e+00 1.0000e+00
<mgrwt>
<rscale>  4 0.25226814E+03</rscale>
<asrwt>0</asrwt>
<pdfrwt beam="1">  1       21 0.12418444E+00 0.25226814E+03</pdfrwt>
<pdfrwt beam="2">  1       21 0.12754152E+00 0.25226814E+03</pdfrwt>
<totfact> 0.20582510E+02</totfact>
</mgrwt>
</event>
<event>
 6      1 +2.5168241e+02 1.79965500e+02 7.54677100e-03 1.16820100e-01
       21 -1    0    0  504  502 +0.0000000000e+00 +0.0000000000e+00 +3.4430159076e+02 3.4430159076e+02 0.0000000000e+00 0.0000e+00 1.0000e+00
       21 -1    0    0  501  503 -0.0000000000e+00 -0.0000000000e+00 -3.6646047155e+03 3.6646047155e+03 0.0000000000e+00 0.0000e+00 1.0000e+00
        6  1    1    2  501    0 -4.5031168607e+01 +2.6481394600e+01 -2.0538313201e+03 2.0617665149e+03 1.7300000000e+02 0.0000e+00 1.0000e+00
       -6  1    1    2    0  505 +3.3858765269e+01 -6.3231028957e+01 -3.7069140135e+02 4.1531397044e+02 1.7300000000e+02 0.0000e+00 1.0000e+00
       21  1    1    2  504  503 +4.1696607762e+01 +2.1752662993e+01 -1.2124366759e+03 1.2133484571e+03 0.0000000000e+00 0.0000e+00 1.0000e+00
       21  1    1    2  505  502 -3.0524204424e+01 +1.4996971364e+01 +3.1665627266e+02 3.1847736374e+02 0.0000000000e+00 0.0000e+00 1.0000e+00
<mgrwt>
<rscale>  4 0.17996549E+03</rscale>
<asrwt>0</asrwt>
<pdfrwt beam="1">  1       21 0.52969474E-01 0.17996549E+03</pdfrwt>
<pdfrwt beam="2">  1       21 0.56378536E+00 0.17996549E+03</pdfrwt>
<totfact> 0.22537301E+00</totfact>
</mgrwt>
</event>
<event>
 6      1 +2.5168241e+02 2.22091200e+02 7.54677100e-03 1.09842800e-01
       21 -1    0    0  503  502 +0.0000000000e+00 +0.0000000000e+00 +4.8904188051e+02 4.8904188051e+02 0.0000000000e+00 0.0000e+00 -1.0000e+00
       21 -1    0    0  504  503 -0.0000000000e+00 -0.0000000000e+00 -4.1376603746e+02 4.1376603746e+02 0.0000000000e+00 0.0000e+00 1.0000e+00
        6  1    1    2  501    0 -1.0621404378e+02 -7.8371255609e+01 -2.5087443763e+02 3.3210007566e+02 1.7300000000e+02 0.0000e+00 1.0000e+00
       -6  1    1    2    0  505 +1.2438538733e+02 +6.4627568363e+01 +3.8042129807e+02 4.4079225402e+02 1.7300000000e+02 0.0000e+00 -1.0000e+00
       21  1    1    2  504  501 -3.2756489592e+01 -4.5982087028e+01 -2.3316583447e+01 6.1081936786e+01 0.0000000000e+00 0.0000e+00 1.0000e+00
       21  1    1    2  505  502 +1.4585146041e+01 +5.9725774274e+01 -3.0954433951e+01 6.8833651500e+01 0.0000000000e+00 0.0000e+00 1.0000e+00
<mgrwt>
<rscale>  4 0.22209124E+03</rscale>
<asrwt>0</asrwt>
<pdfrwt beam="1">  1       21 0.75237212E-01 0.22209124E+03</pdfrwt>
<pdfrwt beam="2">  1       21 0.63656314E-01 0.22209124E+03</pdfrwt>
<totfact> 0.35175335E+03</totfact>
</mgrwt>
</event>
<event>
 6      1 +2.5168241e+02 2.37833200e+02 7.54677100e-03 1.11910500e-01
       21 -1    0    0  501  502 +0.0000000000e+00 +0.0000000000e+00 +4.9347882579e+02 4.9347882579e+02 0.0000000000e+00 0.0000e+00 1.0000e+00
       21 -1    0    0  504  503 -0.0000000000e+00 -0.0000000000e+00 -2.4520969834e+03 2.4520969834e+03 0.0000000000e+00 0.0000e+00 1.0000e+00
        6  1    1    2  501    0 -8.9398536845e+01 +8.4075795536e+01 +1.6804718410e+02 2.7060985546e+02 1.7300000000e+02 0.0000e+00 1.0000e+00
       -6  1    1    2    0  503 +1.4444082868e+02 -1.6676286763e+02 +2.0048783282e+02 3.4466995535e+02 1.7300000000e+02 0.0000e+00 1.0000e+00
       21  1    1    2  504  505 +2.6088899907e+00 +4.0920938169e+01 -1.3165993100e+03 1.3172376674e+03 0.0000000000e+00 0.0000e+00 1.0000e+00
       21  1    1    2  505  502 -5.7651181825e+01 +4.1766133922e+01 -1.0105538646e+03 1.0130583310e+03 0.0000000000e+00 0.0000e+00 1.0000e+00
<mgrwt>
<rscale>  4 0.23783324E+03</rscale>
<asrwt>0</asrwt>
<pdfrwt beam="1">  1       21 0.75919820E-01 0.23783324E+03</pdfrwt>
<pdfrwt beam="2">  1       21 0.37724569E+00 0.23783324E+03</pdfrwt>
<totfact> 0.17123377E+01</totfact>
</mgrwt>
</event>
<event>
 6      1 +2.5168241e+02 2.03438900e+02 7.54677100e-03 1.07240600e-01
       21 -1    0    0  505  502 +0.0000000000e+00 +0.0000000000e+00 +2.0729658470e+02 2.0729658470e+02 0.0000000000e+00 0.0000e+00 -1.0000e+00
       21 -1    0    0  504  503 -0.0000000000e+00 -0.0000000000e+00 -2.1062621495e+03 2.1062621495e+03 0.0000000000e+00 0.0000e+00 -1.0000e+00
        6  1    1    2  501    0 -1.0101274327e+01 -1.4365339682e+02 -5.1578101897e+02 5.6275873489e+02 1.7300000000e+02 0.0000e+00 1.0000e+00
       -6  1    1    2    0  502 -9.2223980672e+01 +6.0458658111e+01 +1.1833196030e+02 2.3683742267e+02 1.7300000000e+02 0.0000e+00 -1.0000e+00
       21  1    1    2  504  501 +1.6121368767e+01 -2.3790929840e+01 -6.7287738916e+01 7.3167934793e+01 0.0000000000e+00 0.0000e+00 -1.0000e+00
       21  1    1    2  505  503 +8.6203886232e+01 +1.0698566855e+02 -1.4342287672e+03 1.4407946418e+03 0.0000000000e+00 0.0000e+00 -1.0000e+00
<mgrwt>
<rscale>  4 0.20343892E+03</rscale>
<asrwt>0</asrwt>
<pdfrwt beam="1">  1       21 0.31891781E-01 0.20343892E+03</pdfrwt>
<pdfrwt beam="2">  1       21 0.32404034E+00 0.20343892E+03</pdfrwt>
<totfact> 0.23060350E+02</totfact>
</mgrwt>
</event>
<event>
 6      1 +2.5168241e+02 1.75617100e+02 7.54677100e-03 1.11471900e-01
       21 -1    0    0  503  502 +0.0000000000e+00 +0.0000000000e+00 +1.1635001711e+02 1.1635001711e+02 0.0000000000e+00 0.0000e+00 1.0000e+00
       21 -1    0    0  501  503 -0.0000000000e+00 -0.0000000000e+00 -6.4738970472e+02 6.4738970472e+02 0.0000000000e+00 0.0000e+00 1.0000e+00
        6  1    1    2  501    0 -3.0836705511e+01 -1.7740079444e+01 -1.6301837339e+02 2.4035307963e+02 1.7300000000e+02 0.0000e+00 1.0000e+00
       -6  1    1    2    0  504 -3.8402782745e+01 +3.1035083977e+01 -3.7839664201e+02 4.1898802948e+02 1.7300000000e+02 0.0000e+00 1.0000e+00
       21  1    1    2  504  505 +6.3361208670e+01 +7.0294038223e+00 -2.0504216916e+01 6.6966246673e+01 0.0000000000e+00 0.0000e+00 1.0000e+00
       21  1    1    2  505  502 +5.8782795859e+00 -2.0324408355e+01 +3.0879544709e+01 3.7432366040e+01 0.0000000000e+00 0.0000e+00 1.0000e+00
<mgrwt>
<rscale>  4 0.17561705E+03</rscale>
<asrwt>0</asrwt>
<pdfrwt beam="1">  1       21 0.17900003E-01 0.17561705E+03</pdfrwt>
<pdfrwt beam="2">  1       21 0.99598417E-01 0.17561705E+03</pdfrwt>
<totfact> 0.23753098E+04</totfact>
</mgrwt>
</event>
<event>
 6      1 +2.5168241e+02 2.81039000e+02 7.54677100e-03 9.87464100e-02
       21 -1    0    0  503  502 +0.0000000000e+00 +0.0000000000e+00 +2.6957118340e+02 2.6957118340e+02 0.0000000000e+00 0.0000e+00 1.0000e+00
       21 -1    0    0  505  503 -0.0000000000e+00 -0.0000000000e+00 -1.5133517648e+03 1.5133517648e+03 0.0000000000e+00 0.0000e+00 1.0000e+00
        6  1    1    2  501    0 -1.2251951239e+02 -1.5537050500e+02 -3.5762976047e+02 4.4382324220e+02 1.7300000000e+02 0.0000e+00 1.0000e+00
       -6  1    1    2    0  504 +7.8370295214e+01 +2.1501005798e+02 +1.3005252119e+02 3.1498235898e+02 1.7300000000e+02 0.0000e+00 1.0000e+00
       21  1    1    2  504  502 +2.4071249832e+01 -8.0268250440e+00 -4.7675644352e+01 5.4007611067e+01 0.0000000000e+00 0.0000e+00 -1.0000e+00
       21  1    1    2  505  501 +2.0077967348e+01 -5.1612727930e+01 -9.6852769779e+02 9.7010973598e+02 0.0000000000e+00 0.0000e+00 1.0000e+00
<mgrwt>
<rscale>  4 0.28103900E+03</rscale>
<asrwt>0</asrwt>
<pdfrwt beam="1">  1       21 0.41472489E-01 0.28103900E+03</pdfrwt>
<pdfrwt beam="2">  1       21 0.23282335E+00 0.28103900E+03</pdfrwt>
<totfact> 0.42801822E+02</totfact>
</mgrwt>
</event>
<event>
 6      1 +2.5168241e+02 2.78882300e+02 7.54677100e-03 1.05854100e-01
       21 -1    0    0  505  502 +0.0000000000e+00 +0.0000000000e+00 +1.0455990975e+03 1.0455990975e+03 0.0000000000e+00 0.0000e+00 1.0000e+00
       21 -1    0    0  504  503 -0.0000000000e+00 -0.0000000000e+00 -2.7278118622e+02 2.7278118622e+02 0.0000000000e+00 0.0000e+00 1.0000e+00
        6  1    1    2  501    0 +1.5653724505e+02 -1.6031358753e+02 -1.3865305957e+02 3.1521108224e+02 1.7300000000e+02 0.0000e+00 1.0000e+00
       -6  1    1    2    0  502 -1.1041774533e+02 +7.1728823181e+01 +4.8944527480e+02 5.3555838112e+02 1.7300000000e+02 0.0000e+00 1.0000e+00
       21  1    1    2  504  501 -1.0364911633e+01 -3.3572396190e+01 +1.0233044828e+01 3.6595797375e+01 0.0000000000e+00 0.0000e+00 1.0000e+00
       21  1    1    2  505  503 -3.5754588095e+01 +1.2215716054e+02 +4.1179265125e+02 4.3101502302e+02 0.0000000000e+00 0.0000e+00 1.0000e+00
<mgrwt>
<rscale>  4 0.27888232E+03</rscale>
<asrwt>0</asrwt>
<pdfrwt beam="1">  1       21 0.16086140E+00 0.27888232E+03</pdfrwt>
<pdfrwt beam="2">  1       21 0.41966337E-01 0.27888232E+03</pdfrwt>
<totfact> 0.12582452E+03</totfact>
</mgrwt>
</event>
<event>
 6      1 +2.5168241e+02 1.79092200e+02 7.54677100e-03 1.16820100e-01
       21 -1    0    0  505  502 +0.0000000000e+00 +0.0000000000e+00 +6.4924721739e+01 6.4924721739e+01 0.0000000000e+00 0.0000e+00 1.0000e+00
       21 -1    0    0  504  503 -0.0000000000e+00 -0.0000000000e+00 -8.3352111289e+02 8.3352111289e+02 0.0000000000e+00 0.0000e+00 1.0000e+00
        6  1    1    2  501    0 -7.2484603236e+01 -5.3192628903e-01 -2.7677939504e+02 3.3435031654e+02 1.7300000000e+02 0.0000e+00 1.0000e+00
       -6  1    1    2    0  503 +2.0731177152e+01 +9.8325025210e+00 -2.1809882252e+02 2.7932518003e+02 1.7300000000e+02 0.0000e+00 1.0000e+00
       21  1    1    2  504  502 +2.8337500213e+01 +6.1003443785e+00 -2.3603080295e+02 2.3780405392e+02 0.0000000000e+00 0.0000e+00 1.0000e+00
       21  1    1    2  505  501 +2.3415925872e+01 -1.5400920610e+01 -3.7687370629e+01 4.6966284130e+01 0.0000000000e+00 0.0000e+00 1.0000e+00
<mgrwt>
<rscale>  4 0.17909221E+03</rscale>
<asrwt>0</asrwt>
<pdfrwt beam="1">  1       21 0.99884195E-02 0.17909221E+03</pdfrwt>
<pdfrwt beam="2">  1       21 0.12823401E+00 0.17909221E+03</pdfrwt>
<totfact> 0.36661968E+04</totfact>
</mgrwt>
</event>
<event>
 6      1 +2.5168241e+02 1.88824400e+02 7.54677100e-03 1.11910500e-01
       21 -1    0    0  501  502 +0.0000000000e+00 +0.0000000000e+00 +5.4361244318e+02 5.4361244318e+02 0.0000000000e+00 0.0000e+00 -1.0000e+00
       21 -1    0    0  504  503 -0.0000000000e+00 -0.0000000000e+00 -1.6385060057e+02 1.6385060057e+02 0.0000000000e+00 0.0000e+00 -1.0000e+00
        6  1    1    2  501    0 +1.4637793846e+00 -7.1005996058e+01 +2.4288257004e+02 3.0653700748e+02 1.7300000000e+02 0.0000e+00 1.0000e+00
       -6  1    1    2    0  503 +6.9200888294e+01 +6.8398462186e+01 +1.9284997180e+02 2.7674396867e+02 1.7300000000e+02 0.0000e+00 -1.0000e+00
       21  1    1    2  504  505 -2.8944619493e+01 -3.7688700742e+01 -6.5306898867e+00 4.7967479312e+01 0.0000000000e+00 0.0000e+00 -1.0000e+00
       21  1    1    2  505  502 -4.1720048186e+01 +4.0296234614e+01 -4.9440009346e+01 7.6214588294e+01 0.0000000000e+00 0.0000e+00 -1.0000e+00
<mgrwt>
<rscale>  4 0.18882435E+03</rscale>
<asrwt>0</asrwt>
<pdfrwt beam="1">  1       21 0.83632683E-01 0.18882435E+03</pdfrwt>
<pdfrwt beam="2">  1       21 0.25207785E-01 0.18882435E+03</pdfrwt>
<totfact> 0.18582792E+04</totfact>
</mgrwt>
</event>
<event>
 6      1 +2.5168241e+02 2.57786600e+02 7.54677100e-03 1.17132900e-01
       21 -1    0    0  505  502 +0.0000000000e+00 +0.0000000000e+00 +2.7991986281e+02 2.7991986281e+02 0.0000000000e+00 0.0000e+00 -1.0000e+00
       21 -1    0    0  504  503 -0.0000000000e+00 -0.0000000000e+00 -1.4960951331e+03 1.4960951331e+03 0.0000000000e+00 0.0000e+00 1.0000e+00
        6  1    1    2  501    0 -3.8154709883e+01 +3.5943316180e+01 -3.1197211820e+02 3.6055971267e+02 1.7300000000e+02 0.0000e+00 1.0000e+00
       -6  1    1    2    0  502 -1.6457919108e+02 -1.7132108461e+02 -1.0072402314e+03 1.0492373935e+03 1.7300000000e+02 0.0000e+00 1.0000e+00
       21  1    1    2  504  501 +4.0181072778e+01 +3.7733138303e+01 -8.3609961858e+01 1.0014456579e+02 0.0000000000e+00 0.0000e+00 1.0000e+00
       21  1    1    2  505  503 +1.6255282818e+02 +9.7644630123e+01 +1.8664704117e+02 2.6607332395e+02 0.0000000000e+00 0.0000e+00 -1.0000e+00
<mgrwt>
<rscale>  4 0.23597915E+03</rscale>
<asrwt>0</asrwt>
<pdfrwt beam="1">  1       21 0.43064595E-01 0.25778664E+03</pdfrwt>
<pdfrwt beam="2">  1       21 0.23016848E+00 0.25778664E+03</pdfrwt>
<totfact> 0.42035718E+02</totfact>
</mgrwt>
</event>
<event>
 6      1 +2.5168241e+02 5.61955900e+02 7.54677100e-03 1.11471900e-01
       21 -1    0    0  503  502 +0.0000000000e+00 +0.0000000000e+00 +1.8621616704e+03 1.8621616704e+03 0.0000000000e+00 0.0000e+00 -1.0000e+00
       21 -1    0    0  501  503 -0.0000000000e+00 -0.0000000000e+00 -2.0707067961e+02 2.0707067961e+02 0.0000000000e+00 0.0000e+00 1.0000e+00
        6  1    1    2  501    0 +4.0854781871e+02 -3.7330702121e+02 +8.1977405624e+02 1.0041055500e+03 1.7300000000e+02 0.0000e+00 -1.0000e+00
       -6  1    1    2    0  504 -3.2264513188e+02 +4.0687673930e+02 +7.0687166825e+02 8.9400509925e+02 1.7300000000e+02 0.0000e+00 1.0000e+00
       21  1    1    2  504  505 -8.1538830557e+01 -4.4769396279e+00 +7.9206842602e+01 1.1376443993e+02 0.0000000000e+00 0.0000e+00 -1.0000e+00
       21  1    1    2  505  502 -4.3638562653e+00 -2.9092778462e+01 +4.9238423669e+01 5.7357260792e+01 0.0000000000e+00 0.0000e+00 1.0000e+00
<mgrwt>
<rscale>  4 0.56195588E+03</rscale>
<asrwt>0</asrwt>
<pdfrwt beam="1">  1       21 0.28648640E+00 0.56195588E+03</pdfrwt>
<pdfrwt beam="2">  1       21 0.31857029E-01 0.56195588E+03</pdfrwt>
<totfact> 0.28975656E+02</totfact>
</mgrwt>
</event>
<event>
 6      1 +2.5168241e+02 3.11479100e+02 7.54677100e-03 1.11910500e-01
       21 -1    0    0  501  502 +0.0000000000e+00 +0.0000000000e+00 +1.1148223927e+03 1.1148223927e+03 0.0000000000e+00 0.0000e+00 -1.0000e+00
       21 -1    0    0  504  503 -0.0000000000e+00 -0.0000000000e+00 -1.0127941664e+03 1.0127941664e+03 0.0000000000e+00 0.0000e+00 1.0000e+00
        6  1    1    2  501    0 +2.5258032067e+02 +4.2719475066e+01 +9.5794411898e+02 1.0065821909e+03 1.7300000000e+02 0.0000e+00 -1.0000e+00
       -6  1    1    2    0  503 -2.5613401840e+02 -2.3494688570e+02 -2.0301485955e+02 4.3811951301e+02 1.7300000000e+02 0.0000e+00 1.0000e+00
       21  1    1    2  504  505 -1.4666148519e+01 +2.8019462893e+01 -1.5895041703e+02 1.6206610160e+02 0.0000000000e+00 0.0000e+00 -1.0000e+00
       21  1    1    2  505  502 +1.8219846255e+01 +1.6420794774e+02 -4.9395061614e+02 5.2084875356e+02 0.0000000000e+00 0.0000e+00 1.0000e+00
<mgrwt>
<rscale>  4 0.31147911E+03</rscale>
<asrwt>0</asrwt>
<pdfrwt beam="1">  1       21 0.17151114E+00 0.31147911E+03</pdfrwt>
<pdfrwt beam="2">  1       21 0.15581449E+00 0.31147911E+03</pdfrwt>
<totfact> 0.48854865E+01</totfact>
</mgrwt>
</event>
<event>
 6      1 +2.5168241e+02 2.47316300e+02 7.54677100e-03 1.07064900e-01
       21 -1    0    0  504  502 +0.0000000000e+00 +0.0000000000e+00 +4.9619739693e+02 4.9619739693e+02 0.0000000000e+00 0.0000e+00 1.0000e+00
       21 -1    0    0  501  503 -0.0000000000e+00 -0.0000000000e+00 -1.1118875192e+03 1.1118875192e+03 0.0000000000e+00 0.0000e+00 -1.0000e+00
        6  1    1    2  501    0 +1.1452991188e+02 +1.1965436885e+02 -6.0141282502e+02 6.4734894361e+02 1.7300000000e+02 0.0000e+00 -1.0000e+00
       -6  1    1    2    0  505 -1.4176070797e+02 -1.3250618779e+02 -4.4123391923e+02 5.1212338319e+02 1.7300000000e+02 0.0000e+00 -1.0000e+00
       21  1    1    2  504  503 -4.9513341490e+01 +3.1316501217e+01 +1.9331407580e+02 2.0199659932e+02 0.0000000000e+00 0.0000e+00 1.0000e+00
       21  1    1    2  505  502 +7.6744137578e+01 -1.8464682273e+01 +2.3364254618e+02 2.4661599001e+02 0.0000000000e+00 0.0000e+00 1.0000e+00
<mgrwt>
<rscale>  4 0.24731631E+03</rscale>
<asrwt>0</asrwt>
<pdfrwt beam="1">  1       21 0.76338062E-01 0.24731631E+03</pdfrwt>
<pdfrwt beam="2">  1       21 0.17105962E+00 0.24731631E+03</pdfrwt>
<totfact> 0.30181298E+02</totfact>
</mgrwt>
</event>
<event>
 6      1 +2.5168241e+02 2.27553200e+02 7.54677100e-03 1.16820100e-01
       21 -1    0    0  505  502 +0.0000000000e+00 +0.0000000000e+00 +8.4116512847e+02 8.4116512847e+02 0.0000000000e+00 0.0000e+00 -1.0000e+00
       21 -1    0    0  501  503 -0.0000000000e+00 -0.0000000000e+00 -5.0325289592e+02 5.0325289592e+02 0.0000000000e+00 0.0000e+00 -1.0000e+00
        6  1    1    2  501    0 +6.5947359875e+01 +4.4879997395e+01 -2.4750819457e+01 1.9210640672e+02 1.7300000000e+02 0.0000e+00 -1.0000e+00
       -6  1    1    2    0  502 -3.7275480903e+01 -1.7810994987e+02 +2.3867435924e+02 3.4642035950e+02 1.7300000000e+02 0.0000e+00 -1.0000e+00
       21  1    1    2  504  503 -3.1593494535e+00 +1.4764826238e+02 -3.2445856550e+02 3.5648751956e+02 0.0000000000e+00 0.0000e+00 -1.0000e+00
       21  1    1    2  505  504 -2.5512529519e+01 -1.4418309902e+01 +4.4844725827e+02 4.4940373860e+02 0.0000000000e+00 0.0000e+00 -1.0000e+00
<mgrwt>
<rscale>  4 0.22755323E+03</rscale>
<asrwt>0</asrwt>
<pdfrwt beam="1">  1       21 0.12941002E+00 0.22755323E+03</pdfrwt>
<pdfrwt beam="2">  1       21 0.77423523E-01 0.22755323E+03</pdfrwt>
<totfact> 0.62466722E+02</totfact>
</mgrwt>
</event>
<event>
 6      1 +2.5168241e+02 2.01075600e+02 7.54677100e-03 1.17132900e-01
       21 -1    0    0  505  502 +0.0000000000e+00 +0.0000000000e+00 +5.8828909713e+02 5.8828909713e+02 0.0000000000e+00 0.0000e+00 -1.0000e+00
       21 -1    0    0  504  503 -0.0000000000e+00 -0.0000000000e+00 -4.8096508406e+02 4.8096508406e+02 0.0000000000e+00 0.0000e+00 1.0000e+00
        6  1    1    2  501    0 -1.2134726884e+02 -3.4748434272e+01 -2.2012409724e+02 3.0710947808e+02 1.7300000000e+02 0.0000e+00 1.0000e+00
       -6  1    1    2    0  502 +3.2698924646e+01 +9.7028164247e+01 -1.4811233381e+02 2.4969971517e+02 1.7300000000e+02 0.0000e+00 -1.0000e+00
       21  1    1    2  504  501 -1.1972380451e+01 -5.4506458046e+01 +4.9502193324e+01 7.4597312326e+01 0.0000000000e+00 0.0000e+00 1.0000e+00
       21  1    1    2  505  503 +1.0062072464e+02 -7.7732719298e+00 +4.2605825079e+02 4.3784767563e+02 0.0000000000e+00 0.0000e+00 -1.0000e+00
<mgrwt>
<rscale>  4 0.20107557E+03</rscale>
<asrwt>0</asrwt>
<pdfrwt beam="1">  1       21 0.90506015E-01 0.20107557E+03</pdfrwt>
<pdfrwt beam="2">  1       21 0.73994628E-01 0.20107557E+03</pdfrwt>
<totfact> 0.16859604E+03</totfact>
</mgrwt>
</event>
<event>
 6      1 +2.5168241e+02 2.25021900e+02 7.54677100e-03 1.07240600e-01
       21 -1    0    0  505  502 +0.0000000000e+00 +0.0000000000e+00 +2.3237360176e+03 2.3237360176e+03 0.0000000000e+00 0.0000e+00 1.0000e+00
       21 -1    0    0  504  503 -0.0000000000e+00 -0.0000000000e+00 -9.4970945228e+01 9.4970945228e+01 0.0000000000e+00 0.0000e+00 -1.0000e+00
        6  1    1    2  501    0 -1.4657855556e+02 -2.0750505395e+01 +1.2710404713e+03 1.2912740747e+03 1.7300000000e+02 0.0000e+00 1.0000e+00
       -6  1    1    2    0  502 +1.3929757550e+02 +5.7388965015e-01 +9.3195747760e+02 9.5805943654e+02 1.7300000000e+02 0.0000e+00 1.0000e+00
       21  1    1    2  504  501 -3.1527728413e+01 +2.4955508186e+01 +8.7501296297e+01 9.6297725318e+01 0.0000000000e+00 0.0000e+00 1.0000e+00
       21  1    1    2  505  503 +3.8808708468e+01 -4.7788924419e+00 -6.1734172837e+01 7.3075726215e+01 0.0000000000e+00 0.0000e+00 -1.0000e+00
<mgrwt>
<rscale>  4 0.22502193E+03</rscale>
<asrwt>0</asrwt>
<pdfrwt beam="1">  1       21 0.35749780E+00 0.22502193E+03</pdfrwt>
<pdfrwt beam="2">  1       21 0.14610916E-01 0.22502193E+03</pdfrwt>
<totfact> 0.62031271E+02</totfact>
</mgrwt>
</event>
<event>
 6      1 +2.5168241e+02 1.81887300e+02 7.54677100e-03 1.11471900e-01
       21 -1    0    0  503  502 +0.0000000000e+00 +0.0000000000e+00 +2.1048325667e+02 2.1048325667e+02 0.0000000000e+00 0.0000e+00 -1.0000e+00
       21 -1    0    0  501  503 -0.0000000000e+00 -0.0000000000e+00 -1.4178841738e+03 1.4178841738e+03 0.0000000000e+00 0.0000e+00 1.0000e+00
        6  1    1    2  501    0 +5.1122444876e+01 +2.6272994136e+00 -5.8068988356e+02 6.0807084122e+02 1.7300000000e+02 0.0000e+00 1.0000e+00
       -6  1    1    2    0  504 -3.6439403763e+01 -6.8691383837e+01 -6.1647685616e+02 6.4499538800e+02 1.7300000000e+02 0.0000e+00 -1.0000e+00
       21  1    1    2  504  505 -1.0251016903e+02 +5.0228239588e+01 -1.6263145350e+02 1.9869625179e+02 0.0000000000e+00 0.0000e+00 1.0000e+00
       21  1    1    2  505  502 +8.7827127919e+01 +1.5835844835e+01 +1.5239727615e+02 1.7660494941e+02 0.0000000000e+00 0.0000e+00 -1.0000e+00
<mgrwt>
<rscale>  4 0.18188725E+03</rscale>
<asrwt>0</asrwt>
<pdfrwt beam="1">  1       21 0.32382040E-01 0.18188725E+03</pdfrwt>
<pdfrwt beam="2">  1       21 0.21813602E+00 0.18188725E+03</pdfrwt>
<totfact> 0.96011066E+02</totfact>
</mgrwt>
</event>
<event>
 6      1 +2.5168241e+02 1.75152100e+02 7.54677100e-03 1.12989000e-01
       21 -1    0    0  503  502 +0.0000000000e+00 +0.0000000000e+00 +1.1515517341e+02 1.1515517341e+02 0.0000000000e+00 0.0000e+00 1.0000e+00
       21 -1    0    0  501  503 -0.0000000000e+00 -0.0000000000e+00 -9.6211232451e+02 9.6211232451e+02 0.0000000000e+00 0.0000e+00 1.0000e+00
        6  1    1    2  501    0 +9.7432251381e+00 -9.0183062385e+01 -3.9460721795e+02 4.4030872309e+02 1.7300000000e+02 0.0000e+00 1.0000e+00
       -6  1    1    2    0  505 +3.3837435600e+01 -9.2868317294e+00 -8.0749113901e+00 1.7670716308e+02 1.7300000000e+02 0.0000e+00 1.0000e+00
       21  1    1    2  504  502 -6.8341030822e+00 +3.1935285192e+01 -2.3580476198e+02 2.3805556741e+02 0.0000000000e+00 0.0000e+00 1.0000e+00
       21  1    1    2  505  504 -3.6746557656e+01 +6.7534608922e+01 -2.0847025979e+02 2.2219604433e+02 0.0000000000e+00 0.0000e+00 1.0000e+00
<mgrwt>
<rscale>  4 0.17515207E+03</rscale>
<asrwt>0</asrwt>
<pdfrwt beam="1">  1       21 0.17716180E-01 0.17515207E+03</pdfrwt>
<pdfrwt beam="2">  1       21 0.14801728E+00 0.17515207E+03</pdfrwt>
<totfact> 0.90734460E+03</totfact>
</mgrwt>
</event>
<event>
 6      1 +2.5168241e+02 1.84391200e+02 7.54677100e-03 1.03924000e-01
       21 -1    0    0  504  502 +0.0000000000e+00 +0.0000000000e+00 +8.9142889388e+02 8.9142889388e+02 0.0000000000e+00 0.0000e+00 1.0000e+00
       21 -1    0    0  501  503 -0.0000000000e+00 -0.0000000000e+00 -8.4880298013e+01 8.4880298013e+01 0.0000000000e+00 0.0000e+00 1.0000e+00
        6  1    1    2  501    0 +4.3340897971e+01 +1.0189539489e+02 +2.2874928830e+02 3.0743510183e+02 1.7300000000e+02 0.0000e+00 -1.0000e+00
       -6  1    1    2    0  505 -4.5950095284e+01 +8.9564345895e-01 +1.8381539189e+02 2.5657223492e+02 1.7300000000e+02 0.0000e+00 -1.0000e+00
       21  1    1    2  504  503 +2.6526593941e+01 -8.9172770071e+01 +2.8041101758e+02 2.9544167257e+02 0.0000000000e+00 0.0000e+00 1.0000e+00
       21  1    1    2  505  502 -2.3917396629e+01 -1.3618268274e+01 +1.1357289809e+02 1.1686018258e+02 0.0000000000e+00 0.0000e+00 1.0000e+00
<mgrwt>
<rscale>  4 0.18439120E+03</rscale>
<asrwt>0</asrwt>
<pdfrwt beam="1">  1       21 0.13714290E+00 0.18439120E+03</pdfrwt>
<pdfrwt beam="2">  1       21 0.13058508E-01 0.18439120E+03</pdfrwt>
<totfact> 0.19131072E+04</totfact>
</mgrwt>
</event>
<event>
 6      1 +2.5168241e+02 4.13825900e+02 7.54677100e-03 9.87464100e-02
       21 -1    0    0  503  502 +0.0000000000e+00 +0.0000000000e+00 +2.6434874235e+02 2.6434874235e+02 0.0000000000e+00 0.0000e+00 -1.0000e+00
       21 -1    0    0  505  503 -0.0000000000e+00 -0.0000000000e+00 -1.8227681376e+03 1.8227681376e+03 0.0000000000e+00 0.0000e+00 1.0000e+00
        6  1    1    2  501    0 -1.5253592971e+02 +3.6185564063e+02 +8.1058960039e+00 4.2918692904e+02 1.7300000000e+02 0.0000e+00 -1.0000e+00
       -6  1    1    2    0  504 +1.6663818632e+02 -2.6981342045e+02 -7.3554052387e+02 8.1946106023e+02 1.7300000000e+02 0.0000e+00 1.0000e+00
       21  1    1    2  504  502 +5.9143963971e+00 -3.0975611507e+01 -1.0468655673e+02 1.0933317774e+02 0.0000000000e+00 0.0000e+00 -1.0000e+00
       21  1    1    2  505  501 -2.0016653000e+01 -6.1066608677e+01 -7.2629821064e+02 7.2913571293e+02 0.0000000000e+00 0.0000e+00 -1.0000e+00
<mgrwt>
<rscale>  4 0.41382593E+03</rscale>
<asrwt>0</asrwt>
<pdfrwt beam="1">  1       21 0.40669039E-01 0.41382593E+03</pdfrwt>
<pdfrwt beam="2">  1       21 0.28042586E+00 0.41382593E+03</pdfrwt>
<totfact> 0.20787647E+02</totfact>
</mgrwt>
</event>
<event>
 6      1 +2.5168241e+02 2.12779900e+02 7.54677100e-03 9.87464100e-02
       21 -1    0    0  503  502 +0.0000000000e+00 +0.0000000000e+00 +1.3328253839e+03 1.3328253839e+03 0.0000000000e+00 0.0000e+00 -1.0000e+00
       21 -1    0    0  505  503 -0.0000000000e+00 -0.0000000000e+00 -1.4240279345e+02 1.4240279345e+02 0.0000000000e+00 0.0000e+00 -1.0000e+00
        6  1    1    2  501    0 +1.1763627190e+02 -4.0855478076e+01 +4.1919853024e+02 4.7028062932e+02 1.7300000000e+02 0.0000e+00 -1.0000e+00
       -6  1    1    2    0  504 -7.6364523095e+01 +1.0946633631e+02 +6.7834424134e+02 7.1266705335e+02 1.7300000000e+02 0.0000e+00 1.0000e+00
       21  1    1    2  504  502 -7.5349308869e+01 -1.0932153948e+02 +1.5921767185e+02 2.0731373416e+02 0.0000000000e+00 0.0000e+00 1.0000e+00
       21  1    1    2  505  501 +3.4077560067e+01 +4.0710681246e+01 -6.6337852942e+01 8.4966760563e+01 0.0000000000e+00 0.0000e+00 -1.0000e+00
<mgrwt>
<rscale>  4 0.21277995E+03</rscale>
<asrwt>0</asrwt>
<pdfrwt beam="1">  1       21 0.20505005E+00 0.21277995E+03</pdfrwt>
<pdfrwt beam="2">  1       21 0.21908123E-01 0.21277995E+03</pdfrwt>
<totfact> 0.23775161E+03</totfact>
</mgrwt>
</event>
<event>
 6      1 +2.5168241e+02 2.23894500e+02 7.54677100e-03 1.11910500e-01
       21 -1    0    0  501  502 +0.0000000000e+00 +0.0000000000e+00 +1.0267017010e+03 1.0267017010e+03 0.0000000000e+00 0.0000e+00 -1.0000e+00
       21 -1    0    0  505  503 -0.0000000000e+00 -0.0000000000e+00 -1.7459833029e+02 1.7459833029e+02 0.0000000000e+00 0.0000e+00 -1.0000e+00
        6  1    1    2  501    0 +7.8521531408e+01 -1.3548251429e+02 +4.2895183325e+02 4.8831323740e+02 1.7300000000e+02 0.0000e+00 -1.0000e+00
       -6  1    1    2    0  504 -1.7931920585e+02 -1.1566657530e+01 +4.1172452128e+02 4.8138887251e+02 1.7300000000e+02 0.0000e+00 -1.0000e+00
       21  1    1    2  504  503 +1.8331559553e+01 -3.0249183109e+01 +6.7175168534e+00 3.6002558063e+01 0.0000000000e+00 0.0000e+00 1.0000e+00
       21  1    1    2  505  502 +8.2466114889e+01 +1.7729835493e+02 +4.7094993273e+00 1.9559536331e+02 0.0000000000e+00 0.0000e+00 -1.0000e+00
<mgrwt>
<rscale>  4 0.22389454E+03</rscale>
<asrwt>0</asrwt>
<pdfrwt beam="1">  1       21 0.15795410E+00 0.22389454E+03</pdfrwt>
<pdfrwt beam="2">  1       21 0.26861282E-01 0.22389454E+03</pdfrwt>
<totfact> 0.33481166E+03</totfact>
</mgrwt>
</event>
<event>
 6      1 +2.5168241e+02 2.07298700e+02 7.54677100e-03 1.07240600e-01
       21 -1    0    0  505  502 +0.0000000000e+00 +0.0000000000e+00 +5.9305200009e+02 5.9305200009e+02 0.0000000000e+00 0.0000e+00 -1.0000e+00
       21 -1    0    0  504  503 -0.0000000000e+00 -0.0000000000e+00 -2.2310826692e+02 2.2310826692e+02 0.0000000000e+00 0.0000e+00 -1.0000e+00
        6  1    1    2  501    0 -1.9360587132e+01 -9.6894105203e+01 +3.3769378813e+02 3.9208340248e+02 1.7300000000e+02 0.0000e+00 -1.0000e+00
       -6  1    1    2    0  502 +2.5531535940e+01 +1.5158854217e+02 +1.2240383434e+02 2.6180650126e+02 1.7300000000e+02 0.0000e+00 -1.0000e+00
       21  1    1    2  504  501 +9.6910577088e+00 +3.2989566806e+01 +1.5316114654e+00 3.4417640117e+01 0.0000000000e+00 0.0000e+00 1.0000e+00
       21  1    1    2  505  503 -1.5862006517e+01 -8.7684003767e+01 -9.1685500760e+01 1.2785272315e+02 0.0000000000e+00 0.0000e+00 -1.0000e+00
<mgrwt>
<rscale>  4 0.20729869E+03</rscale>
<asrwt>0</asrwt>
<pdfrwt beam="1">  1       21 0.91238769E-01 0.20729869E+03</pdfrwt>
<pdfrwt beam="2">  1       21 0.34324349E-01 0.20729869E+03</pdfrwt>
<totfact> 0.82381030E+03</totfact>
</mgrwt>
</event>
<event>
 6      1 +2.5168241e+02 1.92165900e+02 7.54677100e-03 1.16820100e-01
       21 -1    0    0  505  502 +0.0000000000e+00 +0.0000000000e+00 +1.1302448930e+02 1.1302448930e+02 0.0000000000e+00 0.0000e+00 -1.0000e+00
       21 -1    0    0  504  503 -0.0000000000e+00 -0.0000000000e+00 -2.2308794172e+03 2.2308794172e+03 0.0000000000e+00 0.0000e+00 1.0000e+00
        6  1    1    2  501    0 -4.3654573437e+01 -3.6841768461e+01 -5.5094905004e+02 5.8029035269e+02 1.7300000000e+02 0.0000e+00 -1.0000e+00
       -6  1    1    2    0  503 +4.8951436271e+01 +1.0735249876e+02 -5.0199156557e+02 5.4391666090e+02 1.7300000000e+02 0.0000e+00 -1.0000e+00
       21  1    1    2  504  502 -9.6172142956e+00 -2.1085387608e+01 -1.1342234801e+03 1.1344602184e+03 0.0000000000e+00 0.0000e+00 1.0000e+00
       21  1    1    2  505  501 +4.3203514618e+00 -4.9425342694e+01 +6.9309167803e+01 8.5236674493e+01 0.0000000000e+00 0.0000e+00 -1.0000e+00
<mgrwt>
<rscale>  4 0.19216594E+03</rscale>
<asrwt>0</asrwt>
<pdfrwt beam="1">  1       21 0.17388383E-01 0.19216594E+03</pdfrwt>
<pdfrwt beam="2">  1       21 0.34321223E+00 0.19216594E+03</pdfrwt>
<totfact> 0.57413287E+02</totfact>
</mgrwt>
</event>
<event>
 6      1 +2.5168241e+02 2.97964200e+02 7.54677100e-03 1.16820100e-01
       21 -1    0    0  505  502 +0.0000000000e+00 +0.0000000000e+00 +1.2533242103e+02 1.2533242103e+02 0.0000000000e+00 0.0000e+00 -1.0000e+00
       21 -1    0    0  504  503 -0.0000000000e+00 -0.0000000000e+00 -2.2787785915e+03 2.2787785915e+03 0.0000000000e+00 0.0000e+00 1.0000e+00
        6  1    1    2  501    0 +4.8526006599e+01 -2.3743717792e+02 -1.2199827118e+03 1.2557937744e+03 1.7300000000e+02 0.0000e+00 -1.0000e+00
       -6  1    1    2    0  503 -1.5705386193e+02 +2.0816042589e+02 -8.1823231089e+02 8.7603070325e+02 1.7300000000e+02 0.0000e+00 1.0000e+00
       21  1    1    2  504  502 +2.8302079647e+01 +1.6674173246e+01 -1.7077073075e+02 1.7390134630e+02 0.0000000000e+00 0.0000e+00 1.0000e+00
       21  1    1    2  505  501 +8.0225775682e+01 +1.2602578777e+01 +5.5539582890e+01 9.8385188638e+01 0.0000000000e+00 0.0000e+00 -1.0000e+00
<mgrwt>
<rscale>  4 0.29796419E+03</rscale>
<asrwt>0</asrwt>
<pdfrwt beam="1">  1       21 0.19281910E-01 0.29796419E+03</pdfrwt>
<pdfrwt beam="2">  1       21 0.35058133E+00 0.29796419E+03</pdfrwt>
<totfact> 0.37600928E+02</totfact>
</mgrwt>
</event>
<event>
 6      1 +2.5168241e+02 2.19843400e+02 7.54677100e-03 1.17132900e-01
       21 -1    0    0  505  502 +0.0000000000e+00 +0.0000000000e+00 +6.8282947682e+01 6.8282947682e+01 0.0000000000e+00 0.0000e+00 -1.0000e+00
       21 -1    0    0  504  503 -0.0000000000e+00 -0.0000000000e+00 -1.2283034503e+03 1.2283034503e+03 0.0000000000e+00 0.0000e+00 1.0000e+00
        6  1    1    2  501    0 -1.9211358203e+01 +1.1633303146e+02 -5.7482455514e+02 6.1176361422e+02 1.7300000000e+02 0.0000e+00 1.0000e+00
       -6  1    1    2    0  502 -1.2375045244e+01 -1.5006879835e+02 -4.1622531397e+02 4.7523288814e+02 1.7300000000e+02 0.0000e+00 -1.0000e+00
       21  1    1    2  504  501 +1.0605387124e+01 +3.3913333418e+01 -1.8163789839e+02 1.8508083248e+02 0.0000000000e+00 0.0000e+00 1.0000e+00
       21  1    1    2  505  503 +2.0981016323e+01 -1.7756652436e-01 +1.2667264888e+01 2.4509063131e+01 0.0000000000e+00 0.0000e+00 -1.0000e+00
<mgrwt>
<rscale>  4 0.21984344E+03</rscale>
<asrwt>0</asrwt>
<pdfrwt beam="1">  1       21 0.10505069E-01 0.21984344E+03</pdfrwt>
<pdfrwt beam="2">  1       21 0.18896975E+00 0.21984344E+03</pdfrwt>
<totfact> 0.11536943E+04</totfact>
</mgrwt>
</event>
<event>
 6      1 +2.5168241e+02 2.05997300e+02 7.54677100e-03 1.12068800e-01
       21 -1    0    0  504  502 +0.0000000000e+00 +0.0000000000e+00 +2.0642823381e+02 2.0642823381e+02 0.0000000000e+00 0.0000e+00 -1.0000e+00
       21 -1    0    0  502  503 -0.0000000000e+00 -0.0000000000e+00 -4.9770743037e+02 4.9770743037e+02 0.0000000000e+00 0.0000e+00 1.0000e+00
        6  1    1    2  501    0 +4.4915811844e+01 +4.6092596941e+01 -1.5104752902e+02 2.3850851907e+02 1.7300000000e+02 0.0000e+00 1.0000e+00
       -6  1    1    2    0  505 -9.9025204226e+01 -8.5178920141e+01 +7.6289903944e+01 2.2980554596e+02 1.7300000000e+02 0.0000e+00 -1.0000e+00
       21  1    1    2  504  501 +4.0366008118e+01 +2.1164372903e+01 -4.9529160255e+01 6.7308862770e+01 0.0000000000e+00 0.0000e+00 1.0000e+00
       21  1    1    2  505  503 +1.3743384264e+01 +1.7921950297e+01 -1.6699241123e+02 1.6851273638e+02 0.0000000000e+00 0.0000e+00 1.0000e+00
<mgrwt>
<rscale>  4 0.20599731E+03</rscale>
<asrwt>0</asrwt>
<pdfrwt beam="1">  1       21 0.31758190E-01 0.20599731E+03</pdfrwt>
<pdfrwt beam="2">  1       21 0.76570374E-01 0.20599731E+03</pdfrwt>
<totfact> 0.14346304E+04</totfact>
</mgrwt>
</event>
<event>
 6      1 +2.5168241e+02 2.31720300e+02 7.54677100e-03 1.17132900e-01
       21 -1    0    0  505  502 +0.0000000000e+00 +0.0000000000e+00 +9.5904131693e+02 9.5904131693e+02 0.0000000000e+00 0.0000e+00 -1.0000e+00
       21 -1    0    0  504  503 -0.0000000000e+00 -0.0000000000e+00 -2.3100875238e+02 2.3100875238e+02 0.0000000000e+00 0.0000e+00 -1.0000e+00
        6  1    1    2  501    0 -1.3904918846e+02 +2.2903748058e+01 -6.4268474669e+01 2.3220399506e+02 1.7300000000e+02 0.0000e+00 -1.0000e+00
       -6  1    1    2    0  502 +1.3580871383e+02 -3.8382645292e+01 +1.3901110744e+02 2.6300251369e+02 1.7300000000e+02 0.0000e+00 -1.0000e+00
       21  1    1    2  504  501 -3.7254608694e+01 +1.4456270427e+01 -3.3708399001e-01 3.9962523058e+01 0.0000000000e+00 0.0000e+00 -1.0000e+00
       21  1    1    2  505  503 +4.0495083322e+01 +1.0226268062e+00 +6.5362701577e+02 6.5488103751e+02 0.0000000000e+00 0.0000e+00 -1.0000e+00
<mgrwt>
<rscale>  4 0.23172026E+03</rscale>
<asrwt>0</asrwt>
<pdfrwt beam="1">  1       21 0.14754482E+00 0.23172026E+03</pdfrwt>
<pdfrwt beam="2">  1       21 0.35539808E-01 0.23172026E+03</pdfrwt>
<totfact> 0.23025698E+03</totfact>
</mgrwt>
</event>
<event>
 6      1 +2.5168241e+02 2.73363200e+02 7.54677100e-03 1.07064900e-01
       21 -1    0    0  505  502 +0.0000000000e+00 +0.0000000000e+00 +6.4111098638e+02 6.4111098638e+02 0.0000000000e+00 0.0000e+00 1.0000e+00
       21 -1    0    0  501  503 -0.0000000000e+00 -0.0000000000e+00 -5.2251759577e+02 5.2251759577e+02 0.0000000000e+00 0.0000e+00 1.0000e+00
        6  1    1    2  501    0 -1.1125450941e+02 +6.2729862573e+01 -3.7743995267e+02 4.3439903245e+02 1.7300000000e+02 0.0000e+00 1.0000e+00
       -6  1    1    2    0  502 -7.5366689635e+01 +4.7285210032e+01 +9.7261324665e+00 1.9478097096e+02 1.7300000000e+02 0.0000e+00 -1.0000e+00
       21  1    1    2  504  503 +1.4195688635e+02 -8.4927840188e+01 +4.1407121441e+02 4.4589176515e+02 0.0000000000e+00 0.0000e+00 1.0000e+00
       21  1    1    2  505  504 +4.4664312694e+01 -2.5087232416e+01 +7.2235996403e+01 8.8556813601e+01 0.0000000000e+00 0.0000e+00 1.0000e+00
<mgrwt>
<rscale>  4 0.25107658E+03</rscale>
<asrwt>0</asrwt>
<pdfrwt beam="1">  1       21 0.98632460E-01 0.27336325E+03</pdfrwt>
<pdfrwt beam="2">  1       21 0.80387322E-01 0.27336325E+03</pdfrwt>
<totfact> 0.10777471E+03</totfact>
</mgrwt>
</event>
<event>
 6      1 +2.5168241e+02 2.10182400e+02 7.54677100e-03 1.16820100e-01
       21 -1    0    0  505  502 +0.0000000000e+00 +0.0000000000e+00 +9.1036967516e+02 9.1036967516e+02 0.0000000000e+00 0.0000e+00 1.0000e+00
       21 -1    0    0  504  503 -0.0000000000e+00 -0.0000000000e+00 -1.4134909136e+02 1.4134909136e+02 0.0000000000e+00 0.0000e+00 1.0000e+00
        6  1    1    2  501    0 -1.1275547131e+02 +1.7443975347e+01 +2.8028201046e+02 3.4857580807e+02 1.7300000000e+02 0.0000e+00 1.0000e+00
       -6  1    1    2    0  503 +1.0982404680e+02 -2.0431677409e+01 +4.7948789613e+00 2.0598729466e+02 1.7300000000e+02 0.0000e+00 1.0000e+00
       21  1    1    2  504  502 +1.0261092667e+01 -2.5851983091e+01 +2.5459265155e+01 3.7706620569e+01 0.0000000000e+00 0.0000e+00 1.0000e+00
       21  1    1    2  505  501 -7.3296681628e+00 +2.8839685154e+01 +4.5848442922e+02 4.5944904322e+02 0.0000000000e+00 0.0000e+00 1.0000e+00
<mgrwt>
<rscale>  4 0.21018238E+03</rscale>
<asrwt>0</asrwt>
<pdfrwt beam="1">  1       21 0.14005687E+00 0.21018238E+03</pdfrwt>
<pdfrwt beam="2">  1       21 0.21746015E-01 0.21018238E+03</pdfrwt>
<totfact> 0.69573464E+03</totfact>
</mgrwt>
</event>
<event>
 6      1 +2.5168241e+02 2.54088500e+02 7.54677100e-03 1.07064900e-01
       21 -1    0    0  501  502 +0.0000000000e+00 +0.0000000000e+00 +7.0851580909e+02 7.0851580909e+02 0.0000000000e+00 0.0000e+00 1.0000e+00
       21 -1    0    0  504  503 -0.0000000000e+00 -0.0000000000e+00 -2.8728475044e+02 2.8728475044e+02 0.0000000000e+00 0.0000e+00 -1.0000e+00
        6  1    1    2  501    0 -2.8561856168e+01 -1.9777581785e+02 +1.0434711265e+01 2.6451642095e+02 1.7300000000e+02 0.0000e+00 1.0000e+00
       -6  1    1    2    0  503 +1.3563200674e+02 +1.3687346156e+02 -3.9427400168e+01 2.6194256167e+02 1.7300000000e+02 0.0000e+00 -1.0000e+00
       21  1    1    2  504  505 -3.2816597898e+01 +1.6305371673e+00 +1.7818693390e+02 1.8119097980e+02 0.0000000000e+00 0.0000e+00 1.0000e+00
       21  1    1    2  505  502 -7.4253552670e+01 +5.9271819124e+01 +2.7203681365e+02 2.8815059710e+02 0.0000000000e+00 0.0000e+00 1.0000e+00
<mgrwt>
<rscale>  4 0.25408853E+03</rscale>
<asrwt>0</asrwt>
<pdfrwt beam="1">  1       21 0.10900243E+00 0.25408853E+03</pdfrwt>
<pdfrwt beam="2">  1       21 0.44197654E-01 0.25408853E+03</pdfrwt>
<totfact> 0.31322641E+03</totfact>
</mgrwt>
</event>
<event>
 6      1 +2.5168241e+02 1.74385700e+02 7.54677100e-03 1.11671100e-01
       21 -1    0    0  503  502 +0.0000000000e+00 +0.0000000000e+00 +1.0795662304e+02 1.0795662304e+02 0.0000000000e+00 0.0000e+00 1.0000e+00
       21 -1    0    0  501  503 -0.0000000000e+00 -0.0000000000e+00 -5.5063558610e+02 5.5063558610e+02 0.0000000000e+00 0.0000e+00 -1.0000e+00
        6  1    1    2  501    0 -2.2142624713e+01 +3.4786984124e+01 -1.9049560106e+02 2.6061082886e+02 1.7300000000e+02 0.0000e+00 -1.0000e+00
       -6  1    1    2    0  504 -1.6533769482e+01 -1.0320603649e+01 -2.1027310533e+02 2.7299021817e+02 1.7300000000e+02 0.0000e+00 -1.0000e+00
       21  1    1    2  504  505 +6.9967438249e+01 -3.6613882005e+01 -4.5655792968e+01 9.1216611438e+01 0.0000000000e+00 0.0000e+00 1.0000e+00
       21  1    1    2  505  502 -3.1291044054e+01 +1.2147501530e+01 +3.7455363028e+00 3.3774550679e+01 0.0000000000e+00 0.0000e+00 -1.0000e+00
<mgrwt>
<rscale>  4 0.17438575E+03</rscale>
<asrwt>0</asrwt>
<pdfrwt beam="1">  1       21 0.16608711E-01 0.17438575E+03</pdfrwt>
<pdfrwt beam="2">  1       21 0.84713168E-01 0.17438575E+03</pdfrwt>
<totfact> 0.39697273E+04</totfact>
</mgrwt>
</event>
<event>
 6      1 +2.5168241e+02 2.76750100e+02 7.54677100e-03 1.16584500e-01
       21 -1    0    0  505  502 +0.0000000000e+00 +0.0000000000e+00 +1.1835911416e+02 1.1835911416e+02 0.0000000000e+00 0.0000e+00 1.0000e+00
       21 -1    0    0  501  503 -0.0000000000e+00 -0.0000000000e+00 -1.1021930366e+03 1.1021930366e+03 0.0000000000e+00 0.0000e+00 -1.0000e+00
        6  1    1    2  501    0 -1.3529000304e+02 -1.4901139822e+02 -5.9811398556e+02 6.5435244436e+02 1.7300000000e+02 0.0000e+00 -1.0000e+00
       -6  1    1    2    0  502 +1.3448521436e+02 +1.3974477257e+02 -2.0486834434e+02 3.3093037464e+02 1.7300000000e+02 0.0000e+00 1.0000e+00
       21  1    1    2  504  503 -3.2608042562e+01 -6.1173335096e+01 -1.0941955644e+02 1.2953030803e+02 0.0000000000e+00 0.0000e+00 -1.0000e+00
       21  1    1    2  505  504 +3.3412831245e+01 +7.0439960746e+01 -7.1432036133e+01 1.0573902377e+02 0.0000000000e+00 0.0000e+00 -1.0000e+00
<mgrwt>
<rscale>  4 0.27675009E+03</rscale>
<asrwt>0</asrwt>
<pdfrwt beam="1">  1       21 0.18209095E-01 0.27675009E+03</pdfrwt>
<pdfrwt beam="2">  1       21 0.16956816E+00 0.27675009E+03</pdfrwt>
<totfact> 0.55540673E+03</totfact>
</mgrwt>
</event>
<event>
 6      1 +2.5168241e+02 2.48032400e+02 7.54677100e-03 1.16820100e-01
       21 -1    0    0  501  502 +0.0000000000e+00 +0.0000000000e+00 +6.1426320333e+02 6.1426320333e+02 0.0000000000e+00 0.0000e+00 -1.0000e+00
       21 -1    0    0  504  503 -0.0000000000e+00 -0.0000000000e+00 -1.5028009735e+03 1.5028009735e+03 0.0000000000e+00 0.0000e+00 -1.0000e+00
        6  1    1    2  501    0 +1.7919574236e+02 +1.6280610250e+01 +4.8794594737e+02 5.4808431825e+02 1.7300000000e+02 0.0000e+00 -1.0000e+00
       -6  1    1    2    0  503 -1.4947764975e+02 -1.7268436707e+00 -1.6421378736e+02 2.8149905457e+02 1.7300000000e+02 0.0000e+00 1.0000e+00
       21  1    1    2  504  505 -2.9449385457e+01 -3.5171997929e+01 -1.2465948128e+03 1.2474385609e+03 0.0000000000e+00 0.0000e+00 -1.0000e+00
       21  1    1    2  505  502 -2.6870716152e-01 +2.0618231350e+01 +3.4324882651e+01 4.0042243151e+01 0.0000000000e+00 0.0000e+00 1.0000e+00
<mgrwt>
<rscale>  4 0.24803242E+03</rscale>
<asrwt>0</asrwt>
<pdfrwt beam="1">  1       21 0.94502032E-01 0.24803242E+03</pdfrwt>
<pdfrwt beam="2">  1       21 0.23120015E+00 0.24803242E+03</pdfrwt>
<totfact> 0.74810859E+01</totfact>
</mgrwt>
</event>
<event>
 6      1 +2.5168241e+02 2.10637500e+02 7.54677100e-03 1.16820100e-01
       21 -1    0    0  505  502 +0.0000000000e+00 +0.0000000000e+00 +4.1921182780e+02 4.1921182780e+02 0.0000000000e+00 0.0000e+00 -1.0000e+00
       21 -1    0    0  504  503 -0.0000000000e+00 -0.0000000000e+00 -8.3834964903e+02 8.3834964903e+02 0.0000000000e+00 0.0000e+00 1.0000e+00
        6  1    1    2  501    0 +1.8966644636e+01 +1.4581062756e+02 +9.9048038851e+01 2.4770948048e+02 1.7300000000e+02 0.0000e+00 -1.0000e+00
       -6  1    1    2    0  503 +7.3368736987e+01 -8.9293800564e+01 +8.4356320476e+01 2.2450243471e+02 1.7300000000e+02 0.0000e+00 -1.0000e+00
       21  1    1    2  504  502 +2.0003089598e+01 -1.5837305798e+01 -6.5454773334e+02 6.5504479165e+02 0.0000000000e+00 0.0000e+00 1.0000e+00
       21  1    1    2  505  501 -1.1233847122e+02 -4.0679521201e+01 +5.2005552777e+01 1.3030476999e+02 0.0000000000e+00 0.0000e+00 -1.0000e+00
<mgrwt>
<rscale>  4 0.21063745E+03</rscale>
<asrwt>0</asrwt>
<pdfrwt beam="1">  1       21 0.64494128E-01 0.21063745E+03</pdfrwt>
<pdfrwt beam="2">  1       21 0.12897687E+00 0.21063745E+03</pdfrwt>
<totfact> 0.96001541E+02</totfact>
</mgrwt>
</event>
<event>
 6      1 +2.5168241e+02 1.78660400e+02 7.54677100e-03 1.17132900e-01
       21 -1    0    0  503  502 +0.0000000000e+00 +0.0000000000e+00 +6.2542269766e+02 6.2542269766e+02 0.0000000000e+00 0.0000e+00 -1.0000e+00
       21 -1    0    0  504  503 -0.0000000000e+00 -0.0000000000e+00 -7.2265780138e+02 7.2265780138e+02 0.0000000000e+00 0.0000e+00 1.0000e+00
        6  1    1    2  501    0 +4.7670710778e+01 +5.9911759177e-01 -1.7185314939e+02 2.4846601491e+02 1.7300000000e+02 0.0000e+00 -1.0000e+00
       -6  1    1    2    0  505 -4.7555748804e+01 +2.0327505074e+01 -4.7368033584e+02 5.0692880887e+02 1.7300000000e+02 0.0000e+00 1.0000e+00
       21  1    1    2  504  501 +1.7615819562e+01 +1.0790590977e+01 -1.6672990463e+01 2.6546987842e+01 0.0000000000e+00 0.0000e+00 -1.0000e+00
       21  1    1    2  505  502 -1.7730781536e+01 -3.1717213642e+01 +5.6497137196e+02 5.6613868742e+02 0.0000000000e+00 0.0000e+00 -1.0000e+00
<mgrwt>
<rscale>  4 0.17866044E+03</rscale>
<asrwt>0</asrwt>
<pdfrwt beam="1">  1       21 0.96218876E-01 0.17866044E+03</pdfrwt>
<pdfrwt beam="2">  1       21 0.11117812E+00 0.17866044E+03</pdfrwt>
<totfact> 0.58136385E+02</totfact>
</mgrwt>
</event>
<event>
 6      1 +2.5168241e+02 2.32947900e+02 7.54677100e-03 1.15942100e-01
       21 -1    0    0  504  502 +0.0000000000e+00 +0.0000000000e+00 +2.2439666274e+03 2.2439666274e+03 0.0000000000e+00 0.0000e+00 -1.0000e+00
       21 -1    0    0  501  503 -0.0000000000e+00 -0.0000000000e+00 -1.0086677654e+02 1.0086677654e+02 0.0000000000e+00 0.0000e+00 -1.0000e+00
        6  1    1    2  501    0 -1.7537749018e+02 -8.1080916544e+01 +1.6788785002e+03 1.6987917464e+03 1.7300000000e+02 0.0000e+00 -1.0000e+00
       -6  1    1    2    0  502 +9.4096021612e+01 -5.0942561481e+01 +4.3366863319e+02 4.7900593865e+02 1.7300000000e+02 0.0000e+00 1.0000e+00
       21  1    1    2  504  505 +6.7367506381e+01 +7.9076711352e+01 +4.0309222335e+01 1.1142863456e+02 0.0000000000e+00 0.0000e+00 -1.0000e+00
       21  1    1    2  505  503 +1.3913962187e+01 +5.2946766674e+01 -9.7565048604e+00 5.5607084369e+01 0.0000000000e+00 0.0000e+00 -1.0000e+00
<mgrwt>
<rscale>  4 0.23294787E+03</rscale>
<asrwt>0</asrwt>
<pdfrwt beam="1">  1       21 0.34522560E+00 0.23294787E+03</pdfrwt>
<pdfrwt beam="2">  1       21 0.15517967E-01 0.23294787E+03</pdfrwt>
<totfact> 0.65070216E+02</totfact>
</mgrwt>
</event>
<event>
 6      1 +2.5168241e+02 2.48139900e+02 7.54677100e-03 1.03924000e-01
       21 -1    0    0  501  502 +0.0000000000e+00 +0.0000000000e+00 +7.0042001867e+01 7.0042001867e+01 0.0000000000e+00 0.0000e+00 1.0000e+00
       21 -1    0    0  502  503 -0.0000000000e+00 -0.0000000000e+00 -1.1371449220e+03 1.1371449220e+03 0.0000000000e+00 0.0000e+00 1.0000e+00
        6  1    1    2  501    0 +4.8931713688e+01 -1.9466022001e+02 -4.7705591377e+02 5.4570895056e+02 1.7300000000e+02 0.0000e+00 1.0000e+00
       -6  1    1    2    0  505 -1.9243254807e+01 +1.6061602357e+02 -5.3174452802e+02 5.8210742390e+02 1.7300000000e+02 0.0000e+00 1.0000e+00
       21  1    1    2  504  503 -2.6054839823e+01 +7.6035950996e+00 -2.8173246163e+01 3.9120341717e+01 0.0000000000e+00 0.0000e+00 -1.0000e+00
       21  1    1    2  505  504 -3.6336190576e+00 +2.6440601338e+01 -3.0129232153e+01 4.0250207661e+01 0.0000000000e+00 0.0000e+00 1.0000e+00
<mgrwt>
<rscale>  4 0.24813990E+03</rscale>
<asrwt>0</asrwt>
<pdfrwt beam="1">  1       21 0.10775694E-01 0.24813990E+03</pdfrwt>
<pdfrwt beam="2">  1       21 0.17494536E+00 0.24813990E+03</pdfrwt>
<totfact> 0.13485821E+04</totfact>
</mgrwt>
</event>
<event>
 6      1 +2.5168241e+02 1.75387600e+02 7.54677100e-03 1.16820100e-01
       21 -1    0    0  505  502 +0.0000000000e+00 +0.0000000000e+00 +9.3280747410e+02 9.3280747410e+02 0.0000000000e+00 0.0000e+00 1.0000e+00
       21 -1    0    0  501  503 -0.0000000000e+00 -0.0000000000e+00 -2.0025940581e+02 2.0025940581e+02 0.0000000000e+00 0.0000e+00 1.0000e+00
        6  1    1    2  501    0 +2.2832608853e+01 -8.3638307024e+00 -3.1098040680e+01 1.7744680844e+02 1.7300000000e+02 0.0000e+00 1.0000e+00
       -6  1    1    2    0  502 +2.1237351610e+01 +3.0174416443e+01 +2.0739242574e+02 2.7258418656e+02 1.7300000000e+02 0.0000e+00 1.0000e+00
       21  1    1    2  504  503 +6.6197065815e-01 -2.4011155509e+01 -6.0273842179e+01 6.4883818053e+01 0.0000000000e+00 0.0000e+00 1.0000e+00
       21  1    1    2  505  504 -4.4731931121e+01 +2.2005697685e+00 +6.1652752541e+02 6.1815206686e+02 0.0000000000e+00 0.0000e+00 1.0000e+00
<mgrwt>
<rscale>  4 0.17538757E+03</rscale>
<asrwt>0</asrwt>
<pdfrwt beam="1">  1       21 0.14350884E+00 0.17538757E+03</pdfrwt>
<pdfrwt beam="2">  1       21 0.30809140E-01 0.17538757E+03</pdfrwt>
<totfact> 0.34488003E+03</totfact>
</mgrwt>
</event>
<event>
 6      1 +2.5168241e+02 1.82012500e+02 7.54677100e-03 1.16820100e-01
       21 -1    0    0  504  502 +0.0000000000e+00 +0.0000000000e+00 +2.9130703297e+02 2.9130703297e+02 0.0000000000e+00 0.0000e+00 1.0000e+00
       21 -1    0    0  501  503 -0.0000000000e+00 -0.0000000000e+00 -7.0251642293e+02 7.0251642293e+02 0.0000000000e+00 0.0000e+00 1.0000e+00
        6  1    1    2  501    0 -1.7491967746e+01 +8.8080430997e+01 -4.1751924305e+02 4.6077700635e+02 1.7300000000e+02 0.0000e+00 1.0000e+00
       -6  1    1    2    0  505 -9.5214021265e+00 -1.0710812688e+01 -1.7838395115e+02 2.4890804052e+02 1.7300000000e+02 0.0000e+00 -1.0000e+00
       21  1    1    2  504  503 +2.2705617824e+01 -5.2365953640e+00 -4.0999813257e+01 4.7158792381e+01 0.0000000000e+00 0.0000e+00 1.0000e+00
       21  1    1    2  505  502 +4.3077520489e+00 -7.2133022946e+01 +2.2569361750e+02 2.3697961665e+02 0.0000000000e+00 0.0000e+00 1.0000e+00
<mgrwt>
<rscale>  4 0.18201250E+03</rscale>
<asrwt>0</asrwt>
<pdfrwt beam="1">  1       21 0.44816467E-01 0.18201250E+03</pdfrwt>
<pdfrwt beam="2">  1       21 0.10807945E+00 0.18201250E+03</pdfrwt>
<totfact> 0.32867904E+03</totfact>
</mgrwt>
</event>
<event>
 6      1 +2.5168241e+02 2.82830300e+02 7.54677100e-03 1.05831300e-01
       21 -1    0    0  504  502 +0.0000000000e+00 +0.0000000000e+00 +6.5386674070e+02 6.5386674070e+02 0.0000000000e+00 0.0000e+00 -1.0000e+00
       21 -1    0    0  501  503 -0.0000000000e+00 -0.0000000000e+00 -1.0818167670e+03 1.0818167670e+03 0.0000000000e+00 0.0000e+00 1.0000e+00
        6  1    1    2  501    0 -5.2109292176e+01 +2.6599067095e+02 -3.9563515350e+02 5.0982603901e+02 1.7300000000e+02 0.0000e+00 1.0000e+00
       -6  1    1    2    0  505 -7.2636411460e+01 -1.9571708056e+02 -4.9436668693e+02 5.6383388071e+02 1.7300000000e+02 0.0000e+00 -1.0000e+00
       21  1    1    2  504  503 +1.2553390308e+02 -3.4788941439e+01 -5.6691996084e+01 1.4206693384e+02 0.0000000000e+00 0.0000e+00 -1.0000e+00
       21  1    1    2  505  502 -7.8819944904e-01 -3.5484648945e+01 +5.1874381020e+02 5.1995665415e+02 0.0000000000e+00 0.0000e+00 -1.0000e+00
<mgrwt>
<rscale>  4 0.28283034E+03</rscale>
<asrwt>0</asrwt>
<pdfrwt beam="1">  1       21 0.10059488E+00 0.28283034E+03</pdfrwt>
<pdfrwt beam="2">  1       21 0.16643335E+00 0.28283034E+03</pdfrwt>
<totfact> 0.16595380E+02</totfact>
</mgrwt>
</event>
<event>
 6      1 +2.5168241e+02 2.97836700e+02 7.54677100e-03 1.16820100e-01
       21 -1    0    0  501  502 +0.0000000000e+00 +0.0000000000e+00 +1.9811053073e+02 1.9811053073e+02 0.0000000000e+00 0.0000e+00 -1.0000e+00
       21 -1    0    0  504  503 -0.0000000000e+00 -0.0000000000e+00 -1.5328398334e+03 1.5328398334e+03 0.0000000000e+00 0.0000e+00 -1.0000e+00
        6  1    1    2  501    0 +8.7304484195e+01 -6.6947397400e+01 -3.9900764666e+02 4.4859795928e+02 1.7300000000e+02 0.0000e+00 -1.0000e+00
       -6  1    1    2    0  503 -2.9677252430e+02 +2.0132475446e+02 -7.0658589875e+02 8.1104760665e+02 1.7300000000e+02 0.0000e+00 -1.0000e+00
       21  1    1    2  504  505 -1.3608742221e+00 -5.0747374348e+01 -2.3894937608e+02 2.4428252560e+02 0.0000000000e+00 0.0000e+00 -1.0000e+00
       21  1    1    2  505  502 +2.1082891433e+02 -8.3629982717e+01 +9.8136188558e+00 2.2702227257e+02 0.0000000000e+00 0.0000e+00 -1.0000e+00
<mgrwt>
<rscale>  4 0.27320162E+03</rscale>
<asrwt>0</asrwt>
<pdfrwt beam="1">  1       21 0.30478544E-01 0.29783667E+03</pdfrwt>
<pdfrwt beam="2">  1       21 0.23582151E+00 0.29783667E+03</pdfrwt>
<totfact> 0.75135098E+02</totfact>
</mgrwt>
</event>
<event>
 6      1 +2.5168241e+02 1.83496700e+02 7.54677100e-03 9.87464100e-02
       21 -1    0    0  503  502 +0.0000000000e+00 +0.0000000000e+00 +9.2597486384e+02 9.2597486384e+02 0.0000000000e+00 0.0000e+00 -1.0000e+00
       21 -1    0    0  505  503 -0.0000000000e+00 -0.0000000000e+00 -9.5077431837e+02 9.5077431837e+02 0.0000000000e+00 0.0000e+00 1.0000e+00
        6  1    1    2  501    0 +4.4990320333e+01 +3.2798766769e+01 +5.7651641767e+02 6.0448330652e+02 1.7300000000e+02 0.0000e+00 -1.0000e+00
       -6  1    1    2    0  504 -1.0700489861e+00 -5.3526958197e+01 +2.5258661450e+02 3.1079780901e+02 1.7300000000e+02 0.0000e+00 1.0000e+00
       21  1    1    2  504  502 +2.4527958735e+01 +3.7432557070e+01 +4.2845728445e+01 6.1956222726e+01 0.0000000000e+00 0.0000e+00 -1.0000e+00
       21  1    1    2  505  501 -6.8448230082e+01 -1.6704365642e+01 -8.9674821515e+02 8.9951184395e+02 0.0000000000e+00 0.0000e+00 1.0000e+00
<mgrwt>
<rscale>  4 0.18349673E+03</rscale>
<asrwt>0</asrwt>
<pdfrwt beam="1">  1       21 0.14245767E+00 0.18349673E+03</pdfrwt>
<pdfrwt beam="2">  1       21 0.14627297E+00 0.18349673E+03</pdfrwt>
<totfact> 0.11065356E+02</totfact>
</mgrwt>
</event>
<event>
 6      1 +2.5168241e+02 2.85045200e+02 7.54677100e-03 1.17132900e-01
       21 -1    0    0  505  502 +0.0000000000e+00 +0.0000000000e+00 +6.7002795719e+02 6.7002795719e+02 0.0000000000e+00 0.0000e+00 1.0000e+00
       21 -1    0    0  504  503 -0.0000000000e+00 -0.0000000000e+00 -3.3423329945e+02 3.3423329945e+02 0.0000000000e+00 0.0000e+00 1.0000e+00
        6  1    1    2  501    0 -1.5890858218e+02 +1.0769946440e+02 -1.6398021477e+02 3.0605493454e+02 1.7300000000e+02 0.0000e+00 1.0000e+00
       -6  1    1    2    0  502 +9.8968418731e+01 -1.7915619454e+02 +3.8056864169e+02 4.6546018195e+02 1.7300000000e+02 0.0000e+00 1.0000e+00
       21  1    1    2  504  501 +3.0398768781e+01 +1.0859093629e+02 +9.4371372207e+00 1.1315978149e+02 0.0000000000e+00 0.0000e+00 1.0000e+00
       21  1    1    2  505  503 +2.9541394664e+01 -3.7134206153e+01 +1.0976909360e+02 1.1958635865e+02 0.0000000000e+00 0.0000e+00 1.0000e+00
<mgrwt>
<rscale>  4 0.28504523E+03</rscale>
<asrwt>0</asrwt>
<pdfrwt beam="1">  1       21 0.10308122E+00 0.28504523E+03</pdfrwt>
<pdfrwt beam="2">  1       21 0.51420507E-01 0.28504523E+03</pdfrwt>
<totfact> 0.25645513E+03</totfact>
</mgrwt>
</event>
<event>
 6      1 +2.5168241e+02 1.95180100e+02 7.54677100e-03 1.16820100e-01
       21 -1    0    0  501  502 +0.0000000000e+00 +0.0000000000e+00 +1.5694789794e+02 1.5694789794e+02 0.0000000000e+00 0.0000e+00 -1.0000e+00
       21 -1    0    0  504  503 -0.0000000000e+00 -0.0000000000e+00 -2.4239786199e+03 2.4239786199e+03 0.0000000000e+00 0.0000e+00 -1.0000e+00
        6  1    1    2  501    0 +5.3232954779e+01 +5.4168925180e+01 -1.2456892168e+03 1.2599359685e+03 1.7300000000e+02 0.0000e+00 -1.0000e+00
       -6  1    1    2    0  503 -6.6672365699e+01 -5.4193073254e+01 -6.0926308806e+02 6.3914990730e+02 1.7300000000e+02 0.0000e+00 -1.0000e+00
       21  1    1    2  504  505 +3.1517559213e+01 +1.9612253453e+01 -5.4500503952e+02 5.4626778244e+02 0.0000000000e+00 0.0000e+00 -1.0000e+00
       21  1    1    2  505  502 -1.8078148293e+01 -1.9588105379e+01 +1.3292662240e+02 1.3557285960e+02 0.0000000000e+00 0.0000e+00 -1.0000e+00
<mgrwt>
<rscale>  4 0.19518013E+03</rscale>
<asrwt>0</asrwt>
<pdfrwt beam="1">  1       21 0.24145830E-01 0.19518013E+03</pdfrwt>
<pdfrwt beam="2">  1       21 0.37291979E+00 0.19518013E+03</pdfrwt>
<totfact> 0.20568902E+02</totfact>
</mgrwt>
</event>
<event>
 6      1 +2.5168241e+02 2.21726900e+02 7.54677100e-03 1.15942100e-01
       21 -1    0    0  504  502 +0.0000000000e+00 +0.0000000000e+00 +3.2829990562e+02 3.2829990562e+02 0.0000000000e+00 0.0000e+00 1.0000e+00
       21 -1    0    0  501  503 -0.0000000000e+00 -0.0000000000e+00 -2.2111792267e+02 2.2111792267e+02 0.0000000000e+00 0.0000e+00 1.0000e+00
        6  1    1    2  501    0 +1.2996151519e+02 -8.2630294231e+01 +9.4749353166e+01 2.5024827848e+02 1.7300000000e+02 0.0000e+00 1.0000e+00
       -6  1    1    2    0  502 -6.6078714902e+01 +1.1117959534e+02 +4.2790800129e+01 2.2019843677e+02 1.7300000000e+02 0.0000e+00 1.0000e+00
       21  1    1    2  504  505 -4.3457009928e+01 -8.6535776323e+00 -2.0252763394e+01 4.8719303596e+01 0.0000000000e+00 0.0000e+00 1.0000e+00
       21  1    1    2  505  503 -2.0425790362e+01 -1.9895723472e+01 -1.0105406953e+01 3.0251809435e+01 0.0000000000e+00 0.0000e+00 1.0000e+00
<mgrwt>
<rscale>  4 0.22172694E+03</rscale>
<asrwt>0</asrwt>
<pdfrwt beam="1">  1       21 0.50507678E-01 0.22172694E+03</pdfrwt>
<pdfrwt beam="2">  1       21 0.34018142E-01 0.22172694E+03</pdfrwt>
<totfact> 0.30587944E+04</totfact>
</mgrwt>
</event>
<event>
 6      1 +2.5168241e+02 1.99693200e+02 7.54677100e-03 1.03924000e-01
       21 -1    0    0  504  502 +0.0000000000e+00 +0.0000000000e+00 +3.9420114487e+02 3.9420114487e+02 0.0000000000e+00 0.0000e+00 1.0000e+00
       21 -1    0    0  501  503 -0.0000000000e+00 -0.0000000000e+00 -6.3150470789e+02 6.3150470789e+02 0.0000000000e+00 0.0000e+00 -1.0000e+00
        6  1    1    2  501    0 -5.0165815571e+01 +1.9521075851e+02 -2.5061302816e+01 2.6679752283e+02 1.7300000000e+02 0.0000e+00 -1.0000e+00
       -6  1    1    2    0  505 -1.1434947093e+01 -8.4040761198e+01 -4.4838732151e+02 4.8803052942e+02 1.7300000000e+02 0.0000e+00 -1.0000e+00
       21  1    1    2  504  503 +7.2131295647e+00 -5.1060009260e+01 +8.7442712403e+01 1.0151542610e+02 0.0000000000e+00 0.0000e+00 1.0000e+00
       21  1    1    2  505  502 +5.4387633100e+01 -6.0109988053e+01 +1.4870234890e+02 1.6936237441e+02 0.0000000000e+00 0.0000e+00 1.0000e+00
<mgrwt>
<rscale>  4 0.19969316E+03</rscale>
<asrwt>0</asrwt>
<pdfrwt beam="1">  1       21 0.60646330E-01 0.19969316E+03</pdfrwt>
<pdfrwt beam="2">  1       21 0.97154570E-01 0.19969316E+03</pdfrwt>
<totfact> 0.22114725E+03</totfact>
</mgrwt>
</event>
<event>
 6      1 +2.5168241e+02 2.04318400e+02 7.54677100e-03 1.04003000e-01
       21 -1    0    0  504  502 +0.0000000000e+00 +0.0000000000e+00 +2.8822809345e+02 2.8822809345e+02 0.0000000000e+00 0.0000e+00 1.0000e+00
       21 -1    0    0  502  503 -0.0000000000e+00 -0.0000000000e+00 -5.5714861891e+02 5.5714861891e+02 0.0000000000e+00 0.0000e+00 1.0000e+00
        6  1    1    2  501    0 +9.6530905602e+01 +2.7781646863e+01 +1.5135072766e+02 2.5085070939e+02 1.7300000000e+02 0.0000e+00 1.0000e+00
       -6  1    1    2    0  505 -1.5413801726e+02 +4.2448863249e+01 -1.3693261779e+02 2.7247013813e+02 1.7300000000e+02 0.0000e+00 1.0000e+00
       21  1    1    2  504  501 +7.2327471073e+01 -8.8642547459e+01 -2.7358866095e+02 2.9654598243e+02 0.0000000000e+00 0.0000e+00 1.0000e+00
       21  1    1    2  505  503 -1.4720359411e+01 +1.8412037348e+01 -9.7499743796e+00 2.5509882416e+01 0.0000000000e+00 0.0000e+00 -1.0000e+00
<mgrwt>
<rscale>  4 0.20431836E+03</rscale>
<asrwt>0</asrwt>
<pdfrwt beam="1">  1       21 0.44342785E-01 0.20431836E+03</pdfrwt>
<pdfrwt beam="2">  1       21 0.85715170E-01 0.20431836E+03</pdfrwt>
<totfact> 0.56899360E+03</totfact>
</mgrwt>
</event>
<event>
 6      1 +2.5168241e+02 4.97549000e+02 7.54677100e-03 1.12989000e-01
       21 -1    0    0  503  502 +0.0000000000e+00 +0.0000000000e+00 +1.2237244755e+03 1.2237244755e+03 0.0000000000e+00 0.0000e+00 1.0000e+00
       21 -1    0    0  504  503 -0.0000000000e+00 -0.0000000000e+00 -5.2693688373e+02 5.2693688373e+02 0.0000000000e+00 0.0000e+00 1.0000e+00
        6  1    1    2  501    0 -7.8395836799e+01 -1.3358243786e+02 +6.4858932983e+02 6.8890296393e+02 1.7300000000e+02 0.0000e+00 -1.0000e+00
       -6  1    1    2    0  502 -4.1117821094e+02 +8.4680725640e+01 +2.5916195021e+02 5.2281188097e+02 1.7300000000e+02 0.0000e+00 1.0000e+00
       21  1    1    2  504  505 +4.5281519811e+02 +5.5783024840e+01 -2.0804908672e+02 5.0143571072e+02 0.0000000000e+00 0.0000e+00 1.0000e+00
       21  1    1    2  505  501 +3.6758849636e+01 -6.8813126235e+00 -2.9146015064e+00 3.7510803669e+01 0.0000000000e+00 0.0000e+00 1.0000e+00
<mgrwt>
<rscale>  4 0.41123949E+03</rscale>
<asrwt>0</asrwt>
<pdfrwt beam="1">  1       21 0.18826530E+00 0.49754902E+03</pdfrwt>
<pdfrwt beam="2">  1       21 0.81067213E-01 0.49754902E+03</pdfrwt>
<totfact> 0.16853931E+02</totfact>
</mgrwt>
</event>
<event>
 6      1 +2.5168241e+02 2.12511000e+02 7.54677100e-03 1.17132900e-01
       21 -1    0    0  505  502 +0.0000000000e+00 +0.0000000000e+00 +2.2843908826e+02 2.2843908826e+02 0.0000000000e+00 0.0000e+00 1.0000e+00
       21 -1    0    0  504  503 -0.0000000000e+00 -0.0000000000e+00 -6.9449172215e+02 6.9449172215e+02 0.0000000000e+00 0.0000e+00 -1.0000e+00
        6  1    1    2  501    0 -2.3104236773e+01 +1.0045525525e+02 -3.8515064320e+01 2.0503042273e+02 1.7300000000e+02 0.0000e+00 -1.0000e+00
       -6  1    1    2    0  502 -5.8016721967e+00 -1.4685481063e+02 -5.9529121758e+00 2.2707803057e+02 1.7300000000e+02 0.0000e+00 1.0000e+00
       21  1    1    2  504  501 +2.8476089407e+01 +2.5845022864e+01 -4.5226148236e+02 4.5389349114e+02 0.0000000000e+00 0.0000e+00 -1.0000e+00
       21  1    1    2  505  503 +4.2981956292e-01 +2.0554532516e+01 +3.0676824969e+01 3.6928865972e+01 0.0000000000e+00 0.0000e+00 1.0000e+00
<mgrwt>
<rscale>  4 0.21251102E+03</rscale>
<asrwt>0</asrwt>
<pdfrwt beam="1">  1       21 0.35144475E-01 0.21251102E+03</pdfrwt>
<pdfrwt beam="2">  1       21 0.10684488E+00 0.21251102E+03</pdfrwt>
<totfact> 0.53855526E+03</totfact>
</mgrwt>
</event>
<event>
 6      1 +2.5168241e+02 3.36561200e+02 7.54677100e-03 1.03924000e-01
       21 -1    0    0  504  502 +0.0000000000e+00 +0.0000000000e+00 +2.8174878757e+02 2.8174878757e+02 0.0000000000e+00 0.0000e+00 1.0000e+00
       21 -1    0    0  501  503 -0.0000000000e+00 -0.0000000000e+00 -2.7711400792e+03 2.7711400792e+03 0.0000000000e+00 0.0000e+00 1.0000e+00
        6  1    1    2  501    0 +1.9537104459e+01 +1.1322731108e+02 -1.3269561232e+03 1.3431097034e+03 1.7300000000e+02 0.0000e+00 -1.0000e+00
       -6  1    1    2    0  505 +2.6158068055e+02 -1.7701235204e+02 -1.3277874613e+03 1.3757566528e+03 1.7300000000e+02 0.0000e+00 1.0000e+00
       21  1    1    2  504  503 -2.6038015827e+02 +6.1205137471e+01 +1.6239878471e+02 3.1291733884e+02 0.0000000000e+00 0.0000e+00 1.0000e+00
       21  1    1    2  505  502 -2.0737626743e+01 +2.5799034921e+00 +2.9535081825e+00 2.1105171772e+01 0.0000000000e+00 0.0000e+00 1.0000e+00
<mgrwt>
<rscale>  4 0.29829564E+03</rscale>
<asrwt>0</asrwt>
<pdfrwt beam="1">  1       21 0.43345968E-01 0.33656122E+03</pdfrwt>
<pdfrwt beam="2">  1       21 0.42632924E+00 0.33656122E+03</pdfrwt>
<totfact> 0.24575481E+01</totfact>
</mgrwt>
</event>
<event>
 6      1 +2.5168241e+02 4.28210800e+02 7.54677100e-03 1.16820100e-01
       21 -1    0    0  501  502 +0.0000000000e+00 +0.0000000000e+00 +6.6101279620e+02 6.6101279620e+02 0.0000000000e+00 0.0000e+00 1.0000e+00
       21 -1    0    0  504  503 -0.0000000000e+00 -0.0000000000e+00 -1.4493811001e+03 1.4493811001e+03 0.0000000000e+00 0.0000e+00 -1.0000e+00
        6  1    1    2  501    0 +2.6415476807e+02 -3.6619579982e+02 +3.5103180543e+02 5.9751940029e+02 1.7300000000e+02 0.0000e+00 1.0000e+00
       -6  1    1    2    0  503 -5.0283374437e+01 +1.2263412048e+02 -2.2383801316e+02 3.1240998925e+02 1.7300000000e+02 0.0000e+00 -1.0000e+00
       21  1    1    2  504  505 -5.5691406030e+01 -2.3109770857e+01 -8.8705403413e+02 8.8910092435e+02 0.0000000000e+00 0.0000e+00 -1.0000e+00
       21  1    1    2  505  502 -1.5817998760e+02 +2.6667145020e+02 -2.8508062015e+01 3.1136358237e+02 0.0000000000e+00 0.0000e+00 1.0000e+00
<mgrwt>
<rscale>  4 0.36243471E+03</rscale>
<asrwt>0</asrwt>
<pdfrwt beam="1">  1       21 0.10169428E+00 0.42821082E+03</pdfrwt>
<pdfrwt beam="2">  1       21 0.22298171E+00 0.42821082E+03</pdfrwt>
<totfact> 0.60332735E+01</totfact>
</mgrwt>
</event>
<event>
 6      1 +2.5168241e+02 2.85119000e+02 7.54677100e-03 1.04003000e-01
       21 -1    0    0  504  502 +0.0000000000e+00 +0.0000000000e+00 +1.2028060290e+03 1.2028060290e+03 0.0000000000e+00 0.0000e+00 -1.0000e+00
       21 -1    0    0  502  503 -0.0000000000e+00 -0.0000000000e+00 -9.6387839167e+01 9.6387839167e+01 0.0000000000e+00 0.0000e+00 1.0000e+00
        6  1    1    2  501    0 -1.8153748009e+02 +1.3414747157e+02 +7.1788948883e+02 7.7216948851e+02 1.7300000000e+02 0.0000e+00 -1.0000e+00
       -6  1    1    2    0  505 +2.0270129235e+02 -1.0858059119e+02 +3.4626291567e+02 4.5022723760e+02 1.7300000000e+02 0.0000e+00 1.0000e+00
       21  1    1    2  504  501 +1.6725749002e+01 -1.6976767989e+01 +8.4344148777e+00 2.5280440767e+01 0.0000000000e+00 0.0000e+00 -1.0000e+00
       21  1    1    2  505  503 -3.7889561269e+01 -8.5901123917e+00 +3.3831370404e+01 5.1516701248e+01 0.0000000000e+00 0.0000e+00 1.0000e+00
<mgrwt>
<rscale>  4 0.28511902E+03</rscale>
<asrwt>0</asrwt>
<pdfrwt beam="1">  1       21 0.18504707E+00 0.28511902E+03</pdfrwt>
<pdfrwt beam="2">  1       21 0.14828899E-01 0.28511902E+03</pdfrwt>
<totfact> 0.63014786E+03</totfact>
</mgrwt>
</event>
<event>
 6      1 +2.5168241e+02 1.82081400e+02 7.54677100e-03 1.16820100e-01
       21 -1    0    0  501  502 +0.0000000000e+00 +0.0000000000e+00 +2.2090036237e+02 2.2090036237e+02 0.0000000000e+00 0.0000e+00 -1.0000e+00
       21 -1    0    0  504  503 -0.0000000000e+00 -0.0000000000e+00 -6.4917483486e+02 6.4917483486e+02 0.0000000000e+00 0.0000e+00 1.0000e+00
        6  1    1    2  501    0 +5.6894725681e+01 -2.7131932613e+01 +8.2833458549e+01 2.0189981038e+02 1.7300000000e+02 0.0000e+00 -1.0000e+00
       -6  1    1    2    0  503 -7.0575230584e+01 -9.5852236271e+00 -3.2974490005e+02 3.7912193130e+02 1.7300000000e+02 0.0000e+00 -1.0000e+00
       21  1    1    2  504  505 +1.6989714564e+01 +1.2882662133e+01 -2.3200635169e+02 2.3298403510e+02 0.0000000000e+00 0.0000e+00 1.0000e+00
       21  1    1    2  505  502 -3.3092096607e+00 +2.3834494107e+01 +5.0643320703e+01 5.6069420451e+01 0.0000000000e+00 0.0000e+00 -1.0000e+00
<mgrwt>
<rscale>  4 0.18208136E+03</rscale>
<asrwt>0</asrwt>
<pdfrwt beam="1">  1       21 0.33984671E-01 0.18208136E+03</pdfrwt>
<pdfrwt beam="2">  1       21 0.99873050E-01 0.18208136E+03</pdfrwt>
<totfact> 0.69245013E+03</totfact>
</mgrwt>
</event>
<event>
 6      1 +2.5168241e+02 1.98598300e+02 7.54677100e-03 1.11910500e-01
       21 -1    0    0  501  502 +0.0000000000e+00 +0.0000000000e+00 +7.1747757496e+01 7.1747757496e+01 0.0000000000e+00 0.0000e+00 1.0000e+00
       21 -1    0    0  504  503 -0.0000000000e+00 -0.0000000000e+00 -1.9094075604e+03 1.9094075604e+03 0.0000000000e+00 0.0000e+00 1.0000e+00
        6  1    1    2  501    0 -6.0146607035e+01 +6.4372847470e+01 -2.2229645258e+02 2.9513757921e+02 1.7300000000e+02 0.0000e+00 -1.0000e+00
       -6  1    1    2    0  503 +7.3325152653e+01 -8.0609822634e+01 -2.8033510025e+02 3.4697448026e+02 1.7300000000e+02 0.0000e+00 1.0000e+00
       21  1    1    2  504  505 +3.5402202443e+01 -1.6006125494e+00 -9.3631331525e+02 9.3698372569e+02 0.0000000000e+00 0.0000e+00 1.0000e+00
       21  1    1    2  505  502 -4.8580748061e+01 +1.7837587713e+01 -3.9871493482e+02 4.0205953274e+02 0.0000000000e+00 0.0000e+00 -1.0000e+00
<mgrwt>
<rscale>  4 0.19859831E+03</rscale>
<asrwt>0</asrwt>
<pdfrwt beam="1">  1       21 0.11038117E-01 0.19859831E+03</pdfrwt>
<pdfrwt beam="2">  1       21 0.29375499E+00 0.19859831E+03</pdfrwt>
<totfact> 0.25075427E+03</totfact>
</mgrwt>
</event>
<event>
 6      1 +2.5168241e+02 2.26186000e+02 7.54677100e-03 1.03924000e-01
       21 -1    0    0  504  502 +0.0000000000e+00 +0.0000000000e+00 +3.7176328430e+02 3.7176328430e+02 0.0000000000e+00 0.0000e+00 -1.0000e+00
       21 -1    0    0  501  503 -0.0000000000e+00 -0.0000000000e+00 -4.3274575809e+02 4.3274575809e+02 0.0000000000e+00 0.0000e+00 -1.0000e+00
        6  1    1    2  501    0 -1.1723867716e+01 +6.5424679812e+01 +1.0893586002e+02 2.1497409007e+02 1.7300000000e+02 0.0000e+00 1.0000e+00
       -6  1    1    2    0  505 +5.0460022682e+01 -1.5747175865e+02 -3.1902622955e+02 3.9881111294e+02 1.7300000000e+02 0.0000e+00 -1.0000e+00
       21  1    1    2  504  503 -2.2116154164e+01 +5.6134008629e+01 +3.4555053948e+01 6.9528432696e+01 0.0000000000e+00 0.0000e+00 -1.0000e+00
       21  1    1    2  505  502 -1.6620000801e+01 +3.5913070204e+01 +1.1455284180e+02 1.2119540669e+02 0.0000000000e+00 0.0000e+00 -1.0000e+00
<mgrwt>
<rscale>  4 0.22618598E+03</rscale>
<asrwt>0</asrwt>
<pdfrwt beam="1">  1       21 0.57194351E-01 0.22618598E+03</pdfrwt>
<pdfrwt beam="2">  1       21 0.66576271E-01 0.22618598E+03</pdfrwt>
<totfact> 0.57956291E+03</totfact>
</mgrwt>
</event>
<event>
 6      1 +2.5168241e+02 2.06287000e+02 7.54677100e-03 1.05831300e-01
       21 -1    0    0  504  502 +0.0000000000e+00 +0.0000000000e+00 +1.1816500094e+02 1.1816500094e+02 0.0000000000e+00 0.0000e+00 1.0000e+00
       21 -1    0    0  501  503 -0.0000000000e+00 -0.0000000000e+00 -1.0117610299e+03 1.0117610299e+03 0.0000000000e+00 0.0000e+00 -1.0000e+00
        6  1    1    2  501    0 -1.1338316159e+02 -1.3994400777e+01 -2.6162987149e+02 3.3381248365e+02 1.7300000000e+02 0.0000e+00 -1.0000e+00
       -6  1    1    2    0  505 +1.0438954610e+02 +4.2602209309e+01 -5.7996371850e+02 6.1562897946e+02 1.7300000000e+02 0.0000e+00 -1.0000e+00
       21  1    1    2  504  503 +7.3943151432e+01 -4.7488693235e+01 -6.7838488690e+01 1.1101723369e+02 0.0000000000e+00 0.0000e+00 1.0000e+00
       21  1    1    2  505  502 -6.4949535939e+01 +1.8880884702e+01 +1.5836049727e+01 6.9467334027e+01 0.0000000000e+00 0.0000e+00 1.0000e+00
<mgrwt>
<rscale>  4 0.20628703E+03</rscale>
<asrwt>0</asrwt>
<pdfrwt beam="1">  1       21 0.18179232E-01 0.20628703E+03</pdfrwt>
<pdfrwt beam="2">  1       21 0.15565554E+00 0.20628703E+03</pdfrwt>
<totfact> 0.73900426E+03</totfact>
</mgrwt>
</event>
<event>
 6      1 +2.5168241e+02 1.81370100e+02 7.54677100e-03 1.03924000e-01
       21 -1    0    0  504  502 +0.0000000000e+00 +0.0000000000e+00 +1.2990654615e+03 1.2990654615e+03 0.0000000000e+00 0.0000e+00 -1.0000e+00
       21 -1    0    0  501  503 -0.0000000000e+00 -0.0000000000e+00 -1.1548540360e+02 1.1548540360e+02 0.0000000000e+00 0.0000e+00 -1.0000e+00
        6  1    1    2  501    0 +8.0696540580e+01 -9.6449410619e+01 +2.7965096035e+02 3.5206260820e+02 1.7300000000e+02 0.0000e+00 -1.0000e+00
       -6  1    1    2    0  505 -3.3175005797e+01 +7.4383892823e+00 +3.6863142682e+01 1.8012163094e+02 1.7300000000e+02 0.0000e+00 -1.0000e+00
       21  1    1    2  504  503 -1.3636284409e+01 +1.1740063945e+02 +5.8032351589e+02 5.9223664315e+02 0.0000000000e+00 0.0000e+00 -1.0000e+00
       21  1    1    2  505  502 -3.3885250374e+01 -2.8389618115e+01 +2.8674243894e+02 2.9012998277e+02 0.0000000000e+00 0.0000e+00 -1.0000e+00
<mgrwt>
<rscale>  4 0.18137008E+03</rscale>
<asrwt>0</asrwt>
<pdfrwt beam="1">  1       21 0.19985622E+00 0.18137008E+03</pdfrwt>
<pdfrwt beam="2">  1       21 0.17766986E-01 0.18137008E+03</pdfrwt>
<totfact> 0.39127452E+03</totfact>
</mgrwt>
</event>
<event>
 6      1 +2.5168241e+02 3.02306400e+02 7.54677100e-03 1.11671100e-01
       21 -1    0    0  503  502 +0.0000000000e+00 +0.0000000000e+00 +1.6599068790e+03 1.6599068790e+03 0.0000000000e+00 0.0000e+00 -1.0000e+00
       21 -1    0    0  501  503 -0.0000000000e+00 -0.0000000000e+00 -9.5875484115e+02 9.5875484115e+02 0.0000000000e+00 0.0000e+00 -1.0000e+00
        6  1    1    2  501    0 -1.0396110763e+02 -1.5999939607e+02 -3.1650716464e+02 4.0806066205e+02 1.7300000000e+02 0.0000e+00 -1.0000e+00
       -6  1    1    2    0  504 -1.8065613468e+02 -2.3756198074e+01 +8.1409503375e+02 8.5198633787e+02 1.7300000000e+02 0.0000e+00 -1.0000e+00
       21  1    1    2  504  505 +1.7436301212e+02 +2.3882677292e+02 -5.3422449840e+02 6.1060339186e+02 0.0000000000e+00 0.0000e+00 -1.0000e+00
       21  1    1    2  505  502 +1.1025423018e+02 -5.5071178777e+01 +7.3778866711e+02 7.4801132834e+02 0.0000000000e+00 0.0000e+00 -1.0000e+00
<mgrwt>
<rscale>  4 0.27418984E+03</rscale>
<asrwt>0</asrwt>
<pdfrwt beam="1">  1       21 0.25537029E+00 0.30230641E+03</pdfrwt>
<pdfrwt beam="2">  1       21 0.14750075E+00 0.30230641E+03</pdfrwt>
<totfact> 0.16505838E+01</totfact>
</mgrwt>
</event>
<event>
 6      1 +2.5168241e+02 2.20823100e+02 7.54677100e-03 1.17132900e-01
       21 -1    0    0  503  502 +0.0000000000e+00 +0.0000000000e+00 +4.1639595570e+02 4.1639595570e+02 0.0000000000e+00 0.0000e+00 -1.0000e+00
       21 -1    0    0  504  503 -0.0000000000e+00 -0.0000000000e+00 -2.2146788006e+02 2.2146788006e+02 0.0000000000e+00 0.0000e+00 1.0000e+00
        6  1    1    2  501    0 -8.7360617831e+01 +1.0308358386e+02 +2.2898970817e+01 2.2070674134e+02 1.7300000000e+02 0.0000e+00 1.0000e+00
       -6  1    1    2    0  505 +7.8727122001e+01 -1.1593102111e+02 +5.5973359676e+01 2.2956475859e+02 1.7300000000e+02 0.0000e+00 -1.0000e+00
       21  1    1    2  504  501 -3.7380330070e+01 +6.1483321694e+01 +2.8552470500e+01 7.7412734704e+01 0.0000000000e+00 0.0000e+00 -1.0000e+00
       21  1    1    2  505  502 +4.6013825900e+01 -4.8635884448e+01 +8.7503274651e+01 1.1017960113e+02 0.0000000000e+00 0.0000e+00 -1.0000e+00
<mgrwt>
<rscale>  4 0.22082309E+03</rscale>
<asrwt>0</asrwt>
<pdfrwt beam="1">  1       21 0.64060916E-01 0.22082309E+03</pdfrwt>
<pdfrwt beam="2">  1       21 0.34071982E-01 0.22082309E+03</pdfrwt>
<totfact> 0.18361024E+04</totfact>
</mgrwt>
</event>
<event>
 6      1 +2.5168241e+02 3.58848500e+02 7.54677100e-03 1.08487700e-01
       21 -1    0    0  501  502 +0.0000000000e+00 +0.0000000000e+00 +2.5998077813e+03 2.5998077813e+03 0.0000000000e+00 0.0000e+00 1.0000e+00
       21 -1    0    0  505  503 -0.0000000000e+00 -0.0000000000e+00 -1.5155748902e+03 1.5155748902e+03 0.0000000000e+00 0.0000e+00 -1.0000e+00
        6  1    1    2  501    0 +4.8333782104e+01 -3.9245107527e+02 +9.6833922328e+02 1.0601716146e+03 1.7300000000e+02 0.0000e+00 -1.0000e+00
       -6  1    1    2    0  503 -3.3024068443e+02 +1.1591500985e+02 +1.5027614022e+03 1.5526480706e+03 1.7300000000e+02 0.0000e+00 1.0000e+00
       21  1    1    2  504  502 +2.1326692315e+02 +2.0000092358e+02 -3.3073935275e+02 4.4144271361e+02 0.0000000000e+00 0.0000e+00 -1.0000e+00
       21  1    1    2  505  504 +6.8639979172e+01 +7.6535141841e+01 -1.0561283817e+03 1.0611202727e+03 0.0000000000e+00 0.0000e+00 -1.0000e+00
<mgrwt>
<rscale>  4 0.35884848E+03</rscale>
<asrwt>0</asrwt>
<pdfrwt beam="1">  1       21 0.39997043E+00 0.35884848E+03</pdfrwt>
<pdfrwt beam="2">  1       21 0.23316537E+00 0.35884848E+03</pdfrwt>
<totfact> 0.53381184E-01</totfact>
</mgrwt>
</event>
<event>
 6      1 +2.5168241e+02 1.76567100e+02 7.54677100e-03 1.06249800e-01
       21 -1    0    0  503  502 +0.0000000000e+00 +0.0000000000e+00 +3.4344714108e+02 3.4344714108e+02 0.0000000000e+00 0.0000e+00 -1.0000e+00
       21 -1    0    0  501  503 -0.0000000000e+00 -0.0000000000e+00 -1.6222702324e+03 1.6222702324e+03 0.0000000000e+00 0.0000e+00 -1.0000e+00
        6  1    1    2  501    0 +2.1828030340e+01 -4.7529488458e+01 -1.0243661853e+03 1.0401877700e+03 1.7300000000e+02 0.0000e+00 -1.0000e+00
       -6  1    1    2    0  505 -6.4436117700e+01 -8.8020930263e+01 -5.5288262369e+02 5.8949800085e+02 1.7300000000e+02 0.0000e+00 1.0000e+00
       21  1    1    2  504  502 +5.3186643794e+01 +1.0345482185e+02 +2.6014362160e+02 2.8496740708e+02 0.0000000000e+00 0.0000e+00 -1.0000e+00
       21  1    1    2  505  504 -1.0578556434e+01 +3.2095596874e+01 +3.8282096049e+01 5.1064195606e+01 0.0000000000e+00 0.0000e+00 -1.0000e+00
<mgrwt>
<rscale>  4 0.17656710E+03</rscale>
<asrwt>0</asrwt>
<pdfrwt beam="1">  1       21 0.52838023E-01 0.17656710E+03</pdfrwt>
<pdfrwt beam="2">  1       21 0.24958003E+00 0.17656710E+03</pdfrwt>
<totfact> 0.23250609E+02</totfact>
</mgrwt>
</event>
<event>
 6      1 +2.5168241e+02 6.76980900e+02 7.54677100e-03 1.17132900e-01
       21 -1    0    0  505  502 +0.0000000000e+00 +0.0000000000e+00 +1.4873749956e+03 1.4873749956e+03 0.0000000000e+00 0.0000e+00 -1.0000e+00
       21 -1    0    0  504  503 -0.0000000000e+00 -0.0000000000e+00 -3.8376305336e+02 3.8376305336e+02 0.0000000000e+00 0.0000e+00 -1.0000e+00
        6  1    1    2  501    0 -2.1379100555e+02 +3.1559801826e+02 +6.2060374914e+02 7.4858981868e+02 1.7300000000e+02 0.0000e+00 -1.0000e+00
       -6  1    1    2    0  502 -4.6613717863e+01 +1.8876954242e+02 +3.5285771851e+02 4.3845678048e+02 1.7300000000e+02 0.0000e+00 1.0000e+00
       21  1    1    2  504  501 +3.4180331054e+02 -4.4904922099e+02 +6.9778742673e+01 5.6863325518e+02 0.0000000000e+00 0.0000e+00 -1.0000e+00
       21  1    1    2  505  503 -8.1398587126e+01 -5.5318339691e+01 +6.0371731913e+01 1.1545819463e+02 0.0000000000e+00 0.0000e+00 -1.0000e+00
<mgrwt>
<rscale>  4 0.67698092E+03</rscale>
<asrwt>0</asrwt>
<pdfrwt beam="1">  1       21 0.22882692E+00 0.67698092E+03</pdfrwt>
<pdfrwt beam="2">  1       21 0.59040470E-01 0.67698092E+03</pdfrwt>
<totfact> 0.17260616E+02</totfact>
</mgrwt>
</event>
<event>
 6      1 +2.5168241e+02 2.10265700e+02 7.54677100e-03 1.17132900e-01
       21 -1    0    0  505  502 +0.0000000000e+00 +0.0000000000e+00 +1.7077746108e+02 1.7077746108e+02 0.0000000000e+00 0.0000e+00 1.0000e+00
       21 -1    0    0  504  503 -0.0000000000e+00 -0.0000000000e+00 -5.0793095504e+02 5.0793095504e+02 0.0000000000e+00 0.0000e+00 1.0000e+00
        6  1    1    2  501    0 -1.2110900398e+02 +8.7563058957e+01 -3.7744226071e+01 2.3170737308e+02 1.7300000000e+02 0.0000e+00 1.0000e+00
       -6  1    1    2    0  502 +5.6915423041e+01 -6.7422413624e+01 -8.4886105729e+01 2.1194291256e+02 1.7300000000e+02 0.0000e+00 1.0000e+00
       21  1    1    2  504  501 +2.6082941469e+01 -7.3572728495e+00 -1.8012378816e+02 1.8215111408e+02 0.0000000000e+00 0.0000e+00 1.0000e+00
       21  1    1    2  505  503 +3.8110639467e+01 -1.2783372484e+01 -3.4399374005e+01 5.2907016402e+01 0.0000000000e+00 0.0000e+00 1.0000e+00
<mgrwt>
<rscale>  4 0.21026566E+03</rscale>
<asrwt>0</asrwt>
<pdfrwt beam="1">  1       21 0.26273456E-01 0.21026566E+03</pdfrwt>
<pdfrwt beam="2">  1       21 0.78143223E-01 0.21026566E+03</pdfrwt>
<totfact> 0.19761594E+04</totfact>
</mgrwt>
</event>
<event>
 6      1 +2.5168241e+02 3.88727800e+02 7.54677100e-03 1.06249800e-01
       21 -1    0    0  505  502 +0.0000000000e+00 +0.0000000000e+00 +7.0741840844e+02 7.0741840844e+02 0.0000000000e+00 0.0000e+00 1.0000e+00
       21 -1    0    0  504  503 -0.0000000000e+00 -0.0000000000e+00 -6.9187244403e+02 6.9187244403e+02 0.0000000000e+00 0.0000e+00 1.0000e+00
        6  1    1    2  501    0 +2.9708261454e+02 +1.0200477544e+01 -2.9061307891e+02 4.5027446211e+02 1.7300000000e+02 0.0000e+00 -1.0000e+00
       -6  1    1    2    0  502 +3.8742721773e+01 +1.1358236912e+02 -2.2300485543e+02 3.0669548189e+02 1.7300000000e+02 0.0000e+00 1.0000e+00
       21  1    1    2  504  501 -2.6852731341e+02 -1.2172811728e+02 +4.0323778307e+02 4.9952513678e+02 0.0000000000e+00 0.0000e+00 1.0000e+00
       21  1    1    2  505  503 -6.7298022897e+01 -2.0547293905e+00 +1.2592611568e+02 1.4279577168e+02 0.0000000000e+00 0.0000e+00 -1.0000e+00
<mgrwt>
<rscale>  4 0.33348213E+03</rscale>
<asrwt>0</asrwt>
<pdfrwt beam="1">  1       21 0.10883360E+00 0.38872778E+03</pdfrwt>
<pdfrwt beam="2">  1       21 0.10644191E+00 0.38872778E+03</pdfrwt>
<totfact> 0.40656351E+02</totfact>
</mgrwt>
</event>
<event>
 6      1 +2.5168241e+02 2.81030600e+02 7.54677100e-03 1.12989000e-01
       21 -1    0    0  505  502 +0.0000000000e+00 +0.0000000000e+00 +6.9985808703e+02 6.9985808703e+02 0.0000000000e+00 0.0000e+00 -1.0000e+00
       21 -1    0    0  504  503 -0.0000000000e+00 -0.0000000000e+00 -3.7001187757e+02 3.7001187757e+02 0.0000000000e+00 0.0000e+00 -1.0000e+00
        6  1    1    2  501    0 -1.8697020182e+02 -1.2752085988e+02 +2.3548131127e+02 3.6959420183e+02 1.7300000000e+02 0.0000e+00 -1.0000e+00
       -6  1    1    2    0  502 +1.3352531996e+02 -9.6155455764e+01 +2.9934603142e+02 3.8289937225e+02 1.7300000000e+02 0.0000e+00 -1.0000e+00
       21  1    1    2  504  501 +3.5333491629e+01 +5.5803712594e+01 -2.5080363339e+01 7.0650793309e+01 0.0000000000e+00 0.0000e+00 -1.0000e+00
       21  1    1    2  505  503 +1.8111390231e+01 +1.6787260305e+02 -1.7990076989e+02 2.4672559720e+02 0.0000000000e+00 0.0000e+00 -1.0000e+00
<mgrwt>
<rscale>  4 0.26980700E+03</rscale>
<asrwt>0</asrwt>
<pdfrwt beam="1">  1       21 0.10767047E+00 0.28103055E+03</pdfrwt>
<pdfrwt beam="2">  1       21 0.56924904E-01 0.28103055E+03</pdfrwt>
<totfact> 0.18621147E+03</totfact>
</mgrwt>
</event>
<event>
 6      1 +2.5168241e+02 1.82113000e+02 7.54677100e-03 1.17132900e-01
       21 -1    0    0  505  502 +0.0000000000e+00 +0.0000000000e+00 +1.1618397564e+02 1.1618397564e+02 0.0000000000e+00 0.0000e+00 -1.0000e+00
       21 -1    0    0  504  503 -0.0000000000e+00 -0.0000000000e+00 -1.0417544434e+03 1.0417544434e+03 0.0000000000e+00 0.0000e+00 1.0000e+00
        6  1    1    2  501    0 -9.3655210947e+01 +2.4166173134e+01 -1.8966506763e+02 2.7433034892e+02 1.7300000000e+02 0.0000e+00 -1.0000e+00
       -6  1    1    2    0  502 -1.0327410811e+00 -3.3772792764e+01 -1.0159562294e+02 2.0345107197e+02 1.7300000000e+02 0.0000e+00 -1.0000e+00
       21  1    1    2  504  501 +4.9363821039e+01 +5.3600243534e+01 -6.0697247977e+02 6.1133081399e+02 0.0000000000e+00 0.0000e+00 1.0000e+00
       21  1    1    2  505  503 +4.5324130989e+01 -4.3993623905e+01 -2.7337297405e+01 6.8826184142e+01 0.0000000000e+00 0.0000e+00 -1.0000e+00
<mgrwt>
<rscale>  4 0.18211300E+03</rscale>
<asrwt>0</asrwt>
<pdfrwt beam="1">  1       21 0.17874458E-01 0.18211300E+03</pdfrwt>
<pdfrwt beam="2">  1       21 0.16026991E+00 0.18211300E+03</pdfrwt>
<totfact> 0.71882060E+03</totfact>
</mgrwt>
</event>
<event>
 6      1 +2.5168241e+02 2.03899800e+02 7.54677100e-03 1.16584500e-01
       21 -1    0    0  505  502 +0.0000000000e+00 +0.0000000000e+00 +3.5482438904e+02 3.5482438904e+02 0.0000000000e+00 0.0000e+00 -1.0000e+00
       21 -1    0    0  504  503 -0.0000000000e+00 -0.0000000000e+00 -1.2662408939e+03 1.2662408939e+03 0.0000000000e+00 0.0000e+00 1.0000e+00
        6  1    1    2  501    0 -1.0961695844e+02 -1.0844653117e+02 +2.0743288343e+02 3.1102078520e+02 1.7300000000e+02 0.0000e+00 -1.0000e+00
       -6  1    1    2    0  502 +7.5322014191e+01 -3.9463378449e+01 -5.7419807012e+02 6.0569232106e+02 1.7300000000e+02 0.0000e+00 1.0000e+00
       21  1    1    2  504  501 +9.4262779637e+00 +1.1063560367e+02 -6.1280745975e+02 6.2278573703e+02 0.0000000000e+00 0.0000e+00 1.0000e+00
       21  1    1    2  505  503 +2.4868666283e+01 +3.7274305941e+01 +6.8156141568e+01 8.1566439664e+01 0.0000000000e+00 0.0000e+00 -1.0000e+00
<mgrwt>
<rscale>  4 0.20389979E+03</rscale>
<asrwt>0</asrwt>
<pdfrwt beam="1">  1       21 0.54588367E-01 0.20389979E+03</pdfrwt>
<pdfrwt beam="2">  1       21 0.19480629E+00 0.20389979E+03</pdfrwt>
<totfact> 0.45356306E+02</totfact>
</mgrwt>
</event>
<event>
 6      1 +2.5168241e+02 2.45015200e+02 7.54677100e-03 1.03924000e-01
       21 -1    0    0  504  502 +0.0000000000e+00 +0.0000000000e+00 +4.8734846413e+02 4.8734846413e+02 0.0000000000e+00 0.0000e+00 -1.0000e+00
       21 -1    0    0  501  503 -0.0000000000e+00 -0.0000000000e+00 -1.3224691451e+03 1.3224691451e+03 0.0000000000e+00 0.0000e+00 -1.0000e+00
        6  1    1    2  501    0 -1.1486686532e+02 +1.4291055065e+02 -3.7258589916e+02 4.4985228075e+02 1.7300000000e+02 0.0000e+00 -1.0000e+00
       -6  1    1    2    0  505 +7.7274370298e+01 -1.5197961688e+02 -8.9230523137e+02 9.2477389571e+02 1.7300000000e+02 0.0000e+00 1.0000e+00
       21  1    1    2  504  503 +1.0816832711e+01 -2.2648441967e+01 +2.1381202678e+02 2.1528013979e+02 0.0000000000e+00 0.0000e+00 -1.0000e+00
       21  1    1    2  505  502 +2.6775662312e+01 +3.1717508194e+01 +2.1595842277e+02 2.1991129299e+02 0.0000000000e+00 0.0000e+00 -1.0000e+00
<mgrwt>
<rscale>  4 0.24501521E+03</rscale>
<asrwt>0</asrwt>
<pdfrwt beam="1">  1       21 0.74976687E-01 0.24501521E+03</pdfrwt>
<pdfrwt beam="2">  1       21 0.20345679E+00 0.24501521E+03</pdfrwt>
<totfact> 0.19058270E+02</totfact>
</mgrwt>
</event>
<event>
 6      1 +2.5168241e+02 3.11123800e+02 7.54677100e-03 1.15942100e-01
       21 -1    0    0  504  502 +0.0000000000e+00 +0.0000000000e+00 +2.5210222022e+02 2.5210222022e+02 0.0000000000e+00 0.0000e+00 -1.0000e+00
       21 -1    0    0  501  503 -0.0000000000e+00 -0.0000000000e+00 -1.3118128338e+03 1.3118128338e+03 0.0000000000e+00 0.0000e+00 1.0000e+00
        6  1    1    2  501    0 +1.7098104690e+02 +2.4609165109e+02 -1.2774728479e+02 3.6884141295e+02 1.7300000000e+02 0.0000e+00 -1.0000e+00
       -6  1    1    2    0  502 -8.7332035044e+01 -6.1237446371e+00 +3.2496996191e+01 1.9659460663e+02 1.7300000000e+02 0.0000e+00 -1.0000e+00
       21  1    1    2  504  505 -1.8325775168e+01 -2.6924420082e+01 -7.9901833293e+01 8.6284769200e+01 0.0000000000e+00 0.0000e+00 1.0000e+00
       21  1    1    2  505  503 -6.5323236690e+01 -2.1304348637e+02 -8.8455849169e+02 9.1219426525e+02 0.0000000000e+00 0.0000e+00 1.0000e+00
<mgrwt>
<rscale>  4 0.27643232E+03</rscale>
<asrwt>0</asrwt>
<pdfrwt beam="1">  1       21 0.38784957E-01 0.31112377E+03</pdfrwt>
<pdfrwt beam="2">  1       21 0.20181736E+00 0.31112377E+03</pdfrwt>
<totfact> 0.75220683E+02</totfact>
</mgrwt>
</event>
<event>
 6      1 +2.5168241e+02 2.53727800e+02 7.54677100e-03 1.16820100e-01
       21 -1    0    0  501  502 +0.0000000000e+00 +0.0000000000e+00 +1.1663758794e+03 1.1663758794e+03 0.0000000000e+00 0.0000e+00 -1.0000e+00
       21 -1    0    0  504  503 -0.0000000000e+00 -0.0000000000e+00 -3.0021792548e+02 3.0021792548e+02 0.0000000000e+00 0.0000e+00 1.0000e+00
        6  1    1    2  501    0 +8.8425129836e+01 +1.0041730101e+02 +2.2654507092e+02 3.1488776903e+02 1.7300000000e+02 0.0000e+00 1.0000e+00
       -6  1    1    2    0  503 +1.3769031443e+02 -1.0293250924e+02 -1.3958541679e+02 2.8101034274e+02 1.7300000000e+02 0.0000e+00 1.0000e+00
       21  1    1    2  504  505 +2.9104035739e+00 -2.2973359661e+01 -2.5032906510e+01 3.4101203958e+01 0.0000000000e+00 0.0000e+00 -1.0000e+00
       21  1    1    2  505  502 -2.2902584784e+02 +2.5488567889e+01 +8.0423120630e+02 8.3659448914e+02 0.0000000000e+00 0.0000e+00 -1.0000e+00
<mgrwt>
<rscale>  4 0.24405758E+03</rscale>
<asrwt>0</asrwt>
<pdfrwt beam="1">  1       21 0.17944244E+00 0.25372785E+03</pdfrwt>
<pdfrwt beam="2">  1       21 0.46187374E-01 0.25372785E+03</pdfrwt>
<totfact> 0.77609539E+02</totfact>
</mgrwt>
</event>
<event>
 6      1 +2.5168241e+02 2.02028700e+02 7.54677100e-03 1.17392200e-01
       21 -1    0    0  504  502 +0.0000000000e+00 +0.0000000000e+00 +1.4208986114e+02 1.4208986114e+02 0.0000000000e+00 0.0000e+00 -1.0000e+00
       21 -1    0    0  501  503 -0.0000000000e+00 -0.0000000000e+00 -5.9536313526e+02 5.9536313526e+02 0.0000000000e+00 0.0000e+00 -1.0000e+00
        6  1    1    2  501    0 +8.4113837540e+01 -9.5265893807e+01 -2.1876132781e+02 3.0649020658e+02 1.7300000000e+02 0.0000e+00 -1.0000e+00
       -6  1    1    2    0  502 -2.5976305952e+01 +9.5045417827e+01 -1.6019189250e+01 1.9973486011e+02 1.7300000000e+02 0.0000e+00 -1.0000e+00
       21  1    1    2  504  505 -2.6263872321e+01 +7.7269418726e+00 -3.3049764395e+01 4.2916005715e+01 0.0000000000e+00 0.0000e+00 -1.0000e+00
       21  1    1    2  505  503 -3.1873659268e+01 -7.5064658931e+00 -1.8544299267e+02 1.8831192399e+02 0.0000000000e+00 0.0000e+00 1.0000e+00
<mgrwt>
<rscale>  4 0.20202866E+03</rscale>
<asrwt>0</asrwt>
<pdfrwt beam="1">  1       21 0.21859979E-01 0.20202866E+03</pdfrwt>
<pdfrwt beam="2">  1       21 0.91594328E-01 0.20202866E+03</pdfrwt>
<totfact> 0.19592066E+04</totfact>
</mgrwt>
</event>
<event>
 6      1 +2.5168241e+02 2.52712500e+02 7.54677100e-03 1.16820100e-01
       21 -1    0    0  505  502 +0.0000000000e+00 +0.0000000000e+00 +2.2700882497e+02 2.2700882497e+02 0.0000000000e+00 0.0000e+00 1.0000e+00
       21 -1    0    0  501  503 -0.0000000000e+00 -0.0000000000e+00 -5.7929257630e+02 5.7929257630e+02 0.0000000000e+00 0.0000e+00 1.0000e+00
        6  1    1    2  501    0 +1.6562970295e+02 +4.4390954279e+01 -2.4278680275e+02 3.4391595908e+02 1.7300000000e+02 0.0000e+00 1.0000e+00
       -6  1    1    2    0  502 -1.7910733457e+02 -9.3001768471e+01 +3.5458333586e+01 2.6816983361e+02 1.7300000000e+02 0.0000e+00 1.0000e+00
       21  1    1    2  504  503 +4.6919087290e+00 +2.3650383409e+01 -1.6131388551e+02 1.6310586838e+02 0.0000000000e+00 0.0000e+00 1.0000e+00
       21  1    1    2  505  504 +8.7857228918e+00 +2.4960430783e+01 +1.6358603344e+01 3.1109740195e+01 0.0000000000e+00 0.0000e+00 1.0000e+00
<mgrwt>
<rscale>  4 0.25271250E+03</rscale>
<asrwt>0</asrwt>
<pdfrwt beam="1">  1       21 0.34924435E-01 0.25271250E+03</pdfrwt>
<pdfrwt beam="2">  1       21 0.89121934E-01 0.25271250E+03</pdfrwt>
<totfact> 0.81682499E+03</totfact>
</mgrwt>
</event>
<event>
 6      1 +2.5168241e+02 5.17853600e+02 7.54677100e-03 1.17132900e-01
       21 -1    0    0  505  502 +0.0000000000e+00 +0.0000000000e+00 +1.8419222830e+03 1.8419222830e+03 0.0000000000e+00 0.0000e+00 1.0000e+00
       21 -1    0    0  504  503 -0.0000000000e+00 -0.0000000000e+00 -1.5811005717e+02 1.5811005717e+02 0.0000000000e+00 0.0000e+00 1.0000e+00
        6  1    1    2  501    0 -2.8394484819e+02 +1.8855173576e+01 +5.3908833760e+02 6.3366034287e+02 1.7300000000e+02 0.0000e+00 1.0000e+00
       -6  1    1    2    0  502 -8.9310466019e+01 +2.7720531298e+01 +3.4892557265e+02 4.0052820431e+02 1.7300000000e+02 0.0000e+00 -1.0000e+00
       21  1    1    2  504  501 +3.5193279481e+02 -1.7106669416e+01 +2.8345907917e+02 4.5221497074e+02 0.0000000000e+00 0.0000e+00 1.0000e+00
       21  1    1    2  505  503 +2.1322519407e+01 -2.9469035457e+01 +5.1233923639e+02 5.1362882224e+02 0.0000000000e+00 0.0000e+00 1.0000e+00
<mgrwt>
<rscale>  4 0.51785355E+03</rscale>
<asrwt>0</asrwt>
<pdfrwt beam="1">  1       21 0.28337264E+00 0.51785355E+03</pdfrwt>
<pdfrwt beam="2">  1       21 0.24324626E-01 0.51785355E+03</pdfrwt>
<totfact> 0.52661147E+02</totfact>
</mgrwt>
</event>
<event>
 6      1 +2.5168241e+02 1.74476000e+02 7.54677100e-03 1.07064900e-01
       21 -1    0    0  501  502 +0.0000000000e+00 +0.0000000000e+00 +4.2206251628e+02 4.2206251628e+02 0.0000000000e+00 0.0000e+00 1.0000e+00
       21 -1    0    0  505  503 -0.0000000000e+00 -0.0000000000e+00 -1.0524768973e+02 1.0524768973e+02 0.0000000000e+00 0.0000e+00 1.0000e+00
        6  1    1    2  501    0 +6.3996764253e-01 +1.9086951244e+01 +8.8370285977e+01 1.9519997108e+02 1.7300000000e+02 0.0000e+00 -1.0000e+00
       -6  1    1    2    0  504 +2.9529895965e+01 -1.8866996730e+01 +1.4643170836e+02 2.2934520604e+02 1.7300000000e+02 0.0000e+00 -1.0000e+00
       21  1    1    2  504  503 -3.2071653120e+01 +2.0707061268e+01 +3.7359458851e+01 5.3414440799e+01 0.0000000000e+00 0.0000e+00 -1.0000e+00
       21  1    1    2  505  502 +1.9017895129e+00 -2.0927015782e+01 +4.4653373361e+01 4.9350588096e+01 0.0000000000e+00 0.0000e+00 1.0000e+00
<mgrwt>
<rscale>  4 0.17447599E+03</rscale>
<asrwt>0</asrwt>
<pdfrwt beam="1">  1       21 0.64932694E-01 0.17447599E+03</pdfrwt>
<pdfrwt beam="2">  1       21 0.16191952E-01 0.17447599E+03</pdfrwt>
<totfact> 0.75102252E+04</totfact>
</mgrwt>
</event>
<event>
 6      1 +2.5168241e+02 2.87407200e+02 7.54677100e-03 1.07240600e-01
       21 -1    0    0  505  502 +0.0000000000e+00 +0.0000000000e+00 +3.1406900460e+02 3.1406900460e+02 0.0000000000e+00 0.0000e+00 -1.0000e+00
       21 -1    0    0  504  503 -0.0000000000e+00 -0.0000000000e+00 -5.2524188064e+02 5.2524188064e+02 0.0000000000e+00 0.0000e+00 1.0000e+00
        6  1    1    2  501    0 -1.5222024511e+02 +2.0905628174e+02 -1.1771767031e+02 3.3265895728e+02 1.7300000000e+02 0.0000e+00 -1.0000e+00
       -6  1    1    2    0  502 +8.6079342844e+01 -1.9442172436e+02 +6.7638473187e+00 2.7419739204e+02 1.7300000000e+02 0.0000e+00 -1.0000e+00
       21  1    1    2  504  501 +4.7605340722e+01 +2.4941476248e+01 +5.1579691265e+01 7.4490336646e+01 0.0000000000e+00 0.0000e+00 -1.0000e+00
       21  1    1    2  505  503 +1.8535561543e+01 -3.9576033624e+01 -1.5179874431e+02 1.5796419927e+02 0.0000000000e+00 0.0000e+00 1.0000e+00
<mgrwt>
<rscale>  4 0.28740719E+03</rscale>
<asrwt>0</asrwt>
<pdfrwt beam="1">  1       21 0.48318309E-01 0.28740719E+03</pdfrwt>
<pdfrwt beam="2">  1       21 0.80806442E-01 0.28740719E+03</pdfrwt>
<totfact> 0.51732536E+03</totfact>
</mgrwt>
</event>
<event>
 6      1 +2.5168241e+02 2.08209300e+02 7.54677100e-03 1.16362300e-01
       21 -1    0    0  505  502 +0.0000000000e+00 +0.0000000000e+00 +1.0719544819e+03 1.0719544819e+03 0.0000000000e+00 0.0000e+00 1.0000e+00
       21 -1    0    0  502  503 -0.0000000000e+00 -0.0000000000e+00 -1.5403094581e+03 1.5403094581e+03 0.0000000000e+00 0.0000e+00 1.0000e+00
        6  1    1    2  501    0 +9.3763756803e+01 -3.8069190109e+00 -7.6652337240e+02 7.9138689347e+02 1.7300000000e+02 0.0000e+00 -1.0000e+00
       -6  1    1    2    0  503 -1.3062528058e+02 -1.1580133232e+02 -7.3750154792e+02 7.7737407062e+02 1.7300000000e+02 0.0000e+00 1.0000e+00
       21  1    1    2  504  501 +2.4979835894e+01 +1.0007037006e+02 +7.7524301740e+02 7.8207404202e+02 0.0000000000e+00 0.0000e+00 1.0000e+00
       21  1    1    2  505  504 +1.1881687879e+01 +1.9537881270e+01 +2.6042692677e+02 2.6142893393e+02 0.0000000000e+00 0.0000e+00 1.0000e+00
<mgrwt>
<rscale>  4 0.20820926E+03</rscale>
<asrwt>0</asrwt>
<pdfrwt beam="1">  1       21 0.16491607E+00 0.20820926E+03</pdfrwt>
<pdfrwt beam="2">  1       21 0.23697069E+00 0.20820926E+03</pdfrwt>
<totfact> 0.17922628E+01</totfact>
</mgrwt>
</event>
<event>
 6      1 +2.5168241e+02 3.50698200e+02 7.54677100e-03 1.15942100e-01
       21 -1    0    0  504  502 +0.0000000000e+00 +0.0000000000e+00 +8.1866629095e+02 8.1866629095e+02 0.0000000000e+00 0.0000e+00 1.0000e+00
       21 -1    0    0  501  503 -0.0000000000e+00 -0.0000000000e+00 -9.2322502705e+02 9.2322502705e+02 0.0000000000e+00 0.0000e+00 1.0000e+00
        6  1    1    2  501    0 -3.8559671381e+02 -2.3701305253e+02 +2.1258408948e+02 5.2913231603e+02 1.7300000000e+02 0.0000e+00 1.0000e+00
       -6  1    1    2    0  502 +2.6495225849e+02 +1.9044929792e+00 +3.6281136984e+02 4.8141916919e+02 1.7300000000e+02 0.0000e+00 1.0000e+00
       21  1    1    2  504  505 +3.3180850432e+01 +4.4166262057e+01 -1.9909485981e+02 2.0661653066e+02 0.0000000000e+00 0.0000e+00 1.0000e+00
       21  1    1    2  505  503 +8.7463604882e+01 +1.9094229749e+02 -4.8085933561e+02 5.2472330213e+02 0.0000000000e+00 0.0000e+00 1.0000e+00
<mgrwt>
<rscale>  4 0.35069825E+03</rscale>
<asrwt>0</asrwt>
<pdfrwt beam="1">  1       21 0.12594866E+00 0.35069825E+03</pdfrwt>
<pdfrwt beam="2">  1       21 0.14203462E+00 0.35069825E+03</pdfrwt>
<totfact> 0.13858810E+02</totfact>
</mgrwt>
</event>
<event>
 6      1 +2.5168241e+02 1.95365000e+02 7.54677100e-03 1.06249800e-01
       21 -1    0    0  503  502 +0.0000000000e+00 +0.0000000000e+00 +5.0034893287e+02 5.0034893287e+02 0.0000000000e+00 0.0000e+00 -1.0000e+00
       21 -1    0    0  501  503 -0.0000000000e+00 -0.0000000000e+00 -1.3767437921e+03 1.3767437921e+03 0.0000000000e+00 0.0000e+00 1.0000e+00
        6  1    1    2  501    0 +4.3034168033e+01 +1.3654115405e+02 -5.7096053742e+02 6.1353106006e+02 1.7300000000e+02 0.0000e+00 1.0000e+00
       -6  1    1    2    0  505 +1.3543431797e+02 -1.8651381492e+01 -7.3039035204e+02 7.6294783234e+02 1.7300000000e+02 0.0000e+00 1.0000e+00
       21  1    1    2  504  502 -2.0376312851e+02 -9.8470539576e+01 +4.0199041659e+02 4.6131567796e+02 0.0000000000e+00 0.0000e+00 -1.0000e+00
       21  1    1    2  505  504 +2.5294642509e+01 -1.9419232977e+01 +2.2965613626e+01 3.9298154643e+01 0.0000000000e+00 0.0000e+00 1.0000e+00
<mgrwt>
<rscale>  4 0.19536505E+03</rscale>
<asrwt>0</asrwt>
<pdfrwt beam="1">  1       21 0.76976760E-01 0.19536505E+03</pdfrwt>
<pdfrwt beam="2">  1       21 0.21180673E+00 0.19536505E+03</pdfrwt>
<totfact> 0.16895696E+02</totfact>
</mgrwt>
</event>
<event>
 6      1 +2.5168241e+02 2.26990100e+02 7.54677100e-03 1.12068800e-01
       21 -1    0    0  504  502 +0.0000000000e+00 +0.0000000000e+00 +4.4853515071e+02 4.4853515071e+02 0.0000000000e+00 0.0000e+00 -1.0000e+00
       21 -1    0    0  502  503 -0.0000000000e+00 -0.0000000000e+00 -1.2156515143e+03 1.2156515143e+03 0.0000000000e+00 0.0000e+00 1.0000e+00
        6  1    1    2  501    0 +1.8809459679e+02 +1.1028636988e+01 +4.3829380953e+01 2.5952114135e+02 1.7300000000e+02 0.0000e+00 -1.0000e+00
       -6  1    1    2    0  505 -1.2480643987e+02 +5.4675664017e+01 +2.5145496948e+02 3.3425241561e+02 1.7300000000e+02 0.0000e+00 -1.0000e+00
       21  1    1    2  504  501 -5.7731254568e+01 -3.3581685679e+01 -9.7238793698e+02 9.7467888423e+02 0.0000000000e+00 0.0000e+00 1.0000e+00
       21  1    1    2  505  503 -5.5569023456e+00 -3.2122615326e+01 -9.0012776994e+01 9.5734223772e+01 0.0000000000e+00 0.0000e+00 1.0000e+00
<mgrwt>
<rscale>  4 0.22699009E+03</rscale>
<asrwt>0</asrwt>
<pdfrwt beam="1">  1       21 0.69005408E-01 0.22699009E+03</pdfrwt>
<pdfrwt beam="2">  1       21 0.18702331E+00 0.22699009E+03</pdfrwt>
<totfact> 0.29967810E+02</totfact>
</mgrwt>
</event>
<event>
 6      1 +2.5168241e+02 6.61926300e+02 7.54677100e-03 1.11471900e-01
       21 -1    0    0  503  502 +0.0000000000e+00 +0.0000000000e+00 +1.7784024779e+03 1.7784024779e+03 0.0000000000e+00 0.0000e+00 1.0000e+00
       21 -1    0    0  501  503 -0.0000000000e+00 -0.0000000000e+00 -2.9534050391e+02 2.9534050391e+02 0.0000000000e+00 0.0000e+00 -1.0000e+00
        6  1    1    2  501    0 +8.9744195529e-01 +6.3712377207e+02 +4.6011970526e+02 8.0471525989e+02 1.7300000000e+02 0.0000e+00 -1.0000e+00
       -6  1    1    2    0  505 -2.9254279703e+01 -6.4151650923e+02 +9.0587419123e+02 1.1238043846e+03 1.7300000000e+02 0.0000e+00 -1.0000e+00
       21  1    1    2  504  502 -2.7681878465e+01 -2.3024629993e+00 +5.3033354917e+01 5.9867557700e+01 0.0000000000e+00 0.0000e+00 -1.0000e+00
       21  1    1    2  505  504 +5.6038716213e+01 +6.6952001659e+00 +6.4034722581e+01 8.5355779630e+01 0.0000000000e+00 0.0000e+00 1.0000e+00
<mgrwt>
<rscale>  4 0.66192627E+03</rscale>
<asrwt>0</asrwt>
<pdfrwt beam="1">  1       21 0.27360037E+00 0.66192627E+03</pdfrwt>
<pdfrwt beam="2">  1       21 0.45437002E-01 0.66192627E+03</pdfrwt>
<totfact> 0.16024558E+02</totfact>
</mgrwt>
</event>
<event>
 6      1 +2.5168241e+02 1.93715200e+02 7.54677100e-03 1.16820100e-01
       21 -1    0    0  501  502 +0.0000000000e+00 +0.0000000000e+00 +8.9447590992e+02 8.9447590992e+02 0.0000000000e+00 0.0000e+00 -1.0000e+00
       21 -1    0    0  504  503 -0.0000000000e+00 -0.0000000000e+00 -8.3459625606e+02 8.3459625606e+02 0.0000000000e+00 0.0000e+00 1.0000e+00
        6  1    1    2  501    0 +1.5051597313e+02 +4.8732445357e+01 +1.2042064205e+02 2.6355272799e+02 1.7300000000e+02 0.0000e+00 1.0000e+00
       -6  1    1    2    0  503 -2.0184832778e+02 +9.9750115798e+00 -4.1599592696e+02 4.9378523625e+02 1.7300000000e+02 0.0000e+00 1.0000e+00
       21  1    1    2  504  505 +1.6391902843e+02 -3.9249972655e+01 -2.7960413830e+02 3.2647891569e+02 0.0000000000e+00 0.0000e+00 1.0000e+00
       21  1    1    2  505  502 -1.1258667378e+02 -1.9457484281e+01 +6.3505907708e+02 6.4525528606e+02 0.0000000000e+00 0.0000e+00 -1.0000e+00
<mgrwt>
<rscale>  4 0.19371518E+03</rscale>
<asrwt>0</asrwt>
<pdfrwt beam="1">  1       21 0.13761168E+00 0.19371518E+03</pdfrwt>
<pdfrwt beam="2">  1       21 0.12839943E+00 0.19371518E+03</pdfrwt>
<totfact> 0.16659247E+02</totfact>
</mgrwt>
</event>
<event>
 6      1 +2.5168241e+02 2.10347900e+02 7.54677100e-03 1.16820100e-01
       21 -1    0    0  505  502 +0.0000000000e+00 +0.0000000000e+00 +2.2940872687e+02 2.2940872687e+02 0.0000000000e+00 0.0000e+00 1.0000e+00
       21 -1    0    0  501  503 -0.0000000000e+00 -0.0000000000e+00 -2.1377235072e+03 2.1377235072e+03 0.0000000000e+00 0.0000e+00 1.0000e+00
        6  1    1    2  501    0 +8.2518078739e+01 +1.0669515332e+02 -2.6976256756e+01 2.2101992555e+02 1.7300000000e+02 0.0000e+00 -1.0000e+00
       -6  1    1    2    0  502 +4.6565679295e+01 -1.0443808091e+02 -4.8339626199e+02 5.2600059063e+02 1.7300000000e+02 0.0000e+00 1.0000e+00
       21  1    1    2  504  503 -1.4789166239e+02 +1.1001358565e+01 -1.5041482856e+03 1.5114413779e+03 0.0000000000e+00 0.0000e+00 1.0000e+00
       21  1    1    2  505  504 +1.8807904355e+01 -1.3258430968e+01 +1.0620602402e+02 1.0867034001e+02 0.0000000000e+00 0.0000e+00 1.0000e+00
<mgrwt>
<rscale>  4 0.21034785E+03</rscale>
<asrwt>0</asrwt>
<pdfrwt beam="1">  1       21 0.35293651E-01 0.21034785E+03</pdfrwt>
<pdfrwt beam="2">  1       21 0.32888053E+00 0.21034785E+03</pdfrwt>
<totfact> 0.17500655E+02</totfact>
</mgrwt>
</event>
<event>
 6      1 +2.5168241e+02 2.63916300e+02 7.54677100e-03 1.16820100e-01
       21 -1    0    0  504  502 +0.0000000000e+00 +0.0000000000e+00 +3.2973733829e+02 3.2973733829e+02 0.0000000000e+00 0.0000e+00 1.0000e+00
       21 -1    0    0  501  503 -0.0000000000e+00 -0.0000000000e+00 -6.3315715855e+02 6.3315715855e+02 0.0000000000e+00 0.0000e+00 1.0000e+00
        6  1    1    2  501    0 -1.4039838819e+02 -7.7720955355e+01 -3.7704442483e+02 4.4479630462e+02 1.7300000000e+02 0.0000e+00 1.0000e+00
       -6  1    1    2    0  505 +1.8921266299e+02 +3.7739128530e+01 +1.5175833804e+02 3.0030861930e+02 1.7300000000e+02 0.0000e+00 1.0000e+00
       21  1    1    2  504  503 -6.4702828751e+01 +2.5062406011e+01 -1.3779103703e+02 1.5427556556e+02 0.0000000000e+00 0.0000e+00 1.0000e+00
       21  1    1    2  505  502 +1.5888553954e+01 +1.4919420814e+01 +5.9657303558e+01 6.3514007369e+01 0.0000000000e+00 0.0000e+00 1.0000e+00
<mgrwt>
<rscale>  4 0.26391631E+03</rscale>
<asrwt>0</asrwt>
<pdfrwt beam="1">  1       21 0.50728822E-01 0.26391631E+03</pdfrwt>
<pdfrwt beam="2">  1       21 0.97408793E-01 0.26391631E+03</pdfrwt>
<totfact> 0.30625976E+03</totfact>
</mgrwt>
</event>
<event>
 6      1 +2.5168241e+02 2.19354500e+02 7.54677100e-03 1.07064900e-01
       21 -1    0    0  505  502 +0.0000000000e+00 +0.0000000000e+00 +5.0125455592e+02 5.0125455592e+02 0.0000000000e+00 0.0000e+00 -1.0000e+00
       21 -1    0    0  501  503 -0.0000000000e+00 -0.0000000000e+00 -1.0822380253e+03 1.0822380253e+03 0.0000000000e+00 0.0000e+00 1.0000e+00
        6  1    1    2  501    0 +1.5156043093e+02 -2.5733897743e+00 -9.1475859674e+02 9.4323352191e+02 1.7300000000e+02 0.0000e+00 1.0000e+00
       -6  1    1    2    0  502 -4.9061033870e+01 -8.1543132270e+01 -6.7343937397e+01 2.0861561152e+02 1.7300000000e+02 0.0000e+00 -1.0000e+00
       21  1    1    2  504  503 -8.0756638921e+01 +4.0831239631e+01 +1.4452844918e+02 1.7052066585e+02 0.0000000000e+00 0.0000e+00 -1.0000e+00
       21  1    1    2  505  504 -2.1742758139e+01 +4.3285282414e+01 +2.5659061561e+02 2.6112278189e+02 0.0000000000e+00 0.0000e+00 -1.0000e+00
<mgrwt>
<rscale>  4 0.21935446E+03</rscale>
<asrwt>0</asrwt>
<pdfrwt beam="1">  1       21 0.77116087E-01 0.21935446E+03</pdfrwt>
<pdfrwt beam="2">  1       21 0.16649815E+00 0.21935446E+03</pdfrwt>
<totfact> 0.32718236E+02</totfact>
</mgrwt>
</event>
<event>
 6      1 +2.5168241e+02 2.30138500e+02 7.54677100e-03 1.17132900e-01
       21 -1    0    0  505  502 +0.0000000000e+00 +0.0000000000e+00 +9.2633022159e+01 9.2633022159e+01 0.0000000000e+00 0.0000e+00 1.0000e+00
       21 -1    0    0  504  503 -0.0000000000e+00 -0.0000000000e+00 -1.6361210808e+03 1.6361210808e+03 0.0000000000e+00 0.0000e+00 1.0000e+00
        6  1    1    2  501    0 -4.8962896867e+01 -1.7265720697e+02 -9.6462704512e+02 9.9631431415e+02 1.7300000000e+02 0.0000e+00 -1.0000e+00
       -6  1    1    2    0  502 -4.7381779050e+00 +1.3865082936e+02 -4.2452613469e+02 4.7895505201e+02 1.7300000000e+02 0.0000e+00 -1.0000e+00
       21  1    1    2  504  501 +3.1778660749e+01 +3.0792215919e+01 -1.9887477954e+02 2.0373812058e+02 0.0000000000e+00 0.0000e+00 1.0000e+00
       21  1    1    2  505  503 +2.1922414023e+01 +3.2141616935e+00 +4.4539900703e+01 4.9746616233e+01 0.0000000000e+00 0.0000e+00 1.0000e+00
<mgrwt>
<rscale>  4 0.23013854E+03</rscale>
<asrwt>0</asrwt>
<pdfrwt beam="1">  1       21 0.14251235E-01 0.23013854E+03</pdfrwt>
<pdfrwt beam="2">  1       21 0.25171092E+00 0.23013854E+03</pdfrwt>
<totfact> 0.26903115E+03</totfact>
</mgrwt>
</event>
<event>
 6      1 +2.5168241e+02 2.51531300e+02 7.54677100e-03 1.17132900e-01
       21 -1    0    0  505  502 +0.0000000000e+00 +0.0000000000e+00 +4.3529311504e+02 4.3529311504e+02 0.0000000000e+00 0.0000e+00 -1.0000e+00
       21 -1    0    0  504  503 -0.0000000000e+00 -0.0000000000e+00 -2.8723337882e+02 2.8723337882e+02 0.0000000000e+00 0.0000e+00 1.0000e+00
        6  1    1    2  501    0 +1.1416184462e+02 +1.1794211296e+02 -7.4062031169e+01 2.4971474373e+02 1.7300000000e+02 0.0000e+00 -1.0000e+00
       -6  1    1    2    0  502 -2.1855981207e+02 -1.1503598470e+02 +1.8204623339e+02 3.5223784623e+02 1.7300000000e+02 0.0000e+00 1.0000e+00
       21  1    1    2  504  501 +4.9459958013e+01 -2.2785763978e+01 +1.2040036574e+01 5.5771327467e+01 0.0000000000e+00 0.0000e+00 -1.0000e+00
       21  1    1    2  505  503 +5.4938009432e+01 +1.9879635718e+01 +2.8035497428e+01 6.4802576436e+01 0.0000000000e+00 0.0000e+00 -1.0000e+00
<mgrwt>
<rscale>  4 0.25153134E+03</rscale>
<asrwt>0</asrwt>
<pdfrwt beam="1">  1       21 0.66968172E-01 0.25153134E+03</pdfrwt>
<pdfrwt beam="2">  1       21 0.44189751E-01 0.25153134E+03</pdfrwt>
<totfact> 0.96813285E+03</totfact>
</mgrwt>
</event>
<event>
 6      1 +2.5168241e+02 2.62343800e+02 7.54677100e-03 1.11471900e-01
       21 -1    0    0  503  502 +0.0000000000e+00 +0.0000000000e+00 +3.4039535501e+02 3.4039535501e+02 0.0000000000e+00 0.0000e+00 1.0000e+00
       21 -1    0    0  501  503 -0.0000000000e+00 -0.0000000000e+00 -7.4426338140e+02 7.4426338140e+02 0.0000000000e+00 0.0000e+00 -1.0000e+00
        6  1    1    2  501    0 -7.4714636367e+01 -8.0511546298e+01 +1.8364942994e+01 2.0574415449e+02 1.7300000000e+02 0.0000e+00 1.0000e+00
       -6  1    1    2    0  504 +2.0657869428e+02 +9.1841323452e+01 -5.6212318540e+02 6.3009607298e+02 1.7300000000e+02 0.0000e+00 -1.0000e+00
       21  1    1    2  504  505 -1.0247861533e+02 -9.2738974799e+00 -2.9825697769e+00 1.0294060179e+02 0.0000000000e+00 0.0000e+00 -1.0000e+00
       21  1    1    2  505  502 -2.9385442580e+01 -2.0558796748e+00 +1.4287278579e+02 1.4587790715e+02 0.0000000000e+00 0.0000e+00 1.0000e+00
<mgrwt>
<rscale>  4 0.26234384E+03</rscale>
<asrwt>0</asrwt>
<pdfrwt beam="1">  1       21 0.52368517E-01 0.26234384E+03</pdfrwt>
<pdfrwt beam="2">  1       21 0.11450206E+00 0.26234384E+03</pdfrwt>
<totfact> 0.19374011E+03</totfact>
</mgrwt>
</event>
<event>
 6      1 +2.5168241e+02 1.88934100e+02 7.54677100e-03 1.07240600e-01
       21 -1    0    0  505  502 +0.0000000000e+00 +0.0000000000e+00 +1.4725381590e+02 1.4725381590e+02 0.0000000000e+00 0.0000e+00 1.0000e+00
       21 -1    0    0  504  503 -0.0000000000e+00 -0.0000000000e+00 -1.2331699801e+03 1.2331699801e+03 0.0000000000e+00 0.0000e+00 -1.0000e+00
        6  1    1    2  501    0 +4.9222991125e+01 -3.6621243854e+01 -3.1417887152e+01 1.8622594339e+02 1.7300000000e+02 0.0000e+00 1.0000e+00
       -6  1    1    2    0  502 -1.4394734158e+01 +1.1432056972e+02 -1.0451740934e+02 2.3265702200e+02 1.7300000000e+02 0.0000e+00 1.0000e+00
       21  1    1    2  504  501 -2.7911289175e+01 -4.7895820610e+00 -4.2266051265e+01 5.0876313244e+01 0.0000000000e+00 0.0000e+00 -1.0000e+00
       21  1    1    2  505  503 -6.9169677913e+00 -7.2909743809e+01 -9.0771481648e+02 9.1066451739e+02 0.0000000000e+00 0.0000e+00 -1.0000e+00
<mgrwt>
<rscale>  4 0.18893415E+03</rscale>
<asrwt>0</asrwt>
<pdfrwt beam="1">  1       21 0.22654434E-01 0.18893415E+03</pdfrwt>
<pdfrwt beam="2">  1       21 0.18971845E+00 0.18893415E+03</pdfrwt>
<totfact> 0.28713738E+03</totfact>
</mgrwt>
</event>
<event>
 6      1 +2.5168241e+02 2.27235400e+02 7.54677100e-03 1.11910500e-01
       21 -1    0    0  501  502 +0.0000000000e+00 +0.0000000000e+00 +6.4116495951e+02 6.4116495951e+02 0.0000000000e+00 0.0000e+00 -1.0000e+00
       21 -1    0    0  505  503 -0.0000000000e+00 -0.0000000000e+00 -2.0266783652e+02 2.0266783652e+02 0.0000000000e+00 0.0000e+00 -1.0000e+00
        6  1    1    2  501    0 +1.3808288697e+02 +8.1816725465e+01 +4.9031410888e+02 5.4414867969e+02 1.7300000000e+02 0.0000e+00 -1.0000e+00
       -6  1    1    2    0  504 -6.2493518527e+01 -7.5976265614e+01 -2.1005697152e+01 2.0012014418e+02 1.7300000000e+02 0.0000e+00 -1.0000e+00
       21  1    1    2  504  503 -1.6750825576e+01 -1.6996377485e+01 -3.1690674151e+01 3.9670717579e+01 0.0000000000e+00 0.0000e+00 1.0000e+00
       21  1    1    2  505  502 -5.8838542866e+01 +1.1155917634e+01 +8.7938540758e-01 5.9893254575e+01 0.0000000000e+00 0.0000e+00 -1.0000e+00
<mgrwt>
<rscale>  4 0.22723539E+03</rscale>
<asrwt>0</asrwt>
<pdfrwt beam="1">  1       21 0.98640762E-01 0.22723539E+03</pdfrwt>
<pdfrwt beam="2">  1       21 0.31179667E-01 0.22723539E+03</pdfrwt>
<totfact> 0.81815236E+03</totfact>
</mgrwt>
</event>
<event>
 6      1 +2.5168241e+02 2.52218700e+02 7.54677100e-03 1.17132900e-01
       21 -1    0    0  503  502 +0.0000000000e+00 +0.0000000000e+00 +2.6060238711e+02 2.6060238711e+02 0.0000000000e+00 0.0000e+00 -1.0000e+00
       21 -1    0    0  504  503 -0.0000000000e+00 -0.0000000000e+00 -6.9583533557e+02 6.9583533557e+02 0.0000000000e+00 0.0000e+00 1.0000e+00
        6  1    1    2  501    0 +7.6167304913e+01 +8.4061883004e+01 +1.0654876558e+01 2.0714821966e+02 1.7300000000e+02 0.0000e+00 1.0000e+00
       -6  1    1    2    0  505 -2.3650416989e+01 +1.4346492504e+02 -2.1491431765e+02 3.1186325668e+02 1.7300000000e+02 0.0000e+00 1.0000e+00
       21  1    1    2  504  501 +6.7736811448e+00 -2.1152525402e+02 -2.8544218361e+02 3.5533935333e+02 0.0000000000e+00 0.0000e+00 -1.0000e+00
       21  1    1    2  505  502 -5.9290569068e+01 -1.6001554024e+01 +5.4468676240e+01 8.2086893003e+01 0.0000000000e+00 0.0000e+00 -1.0000e+00
<mgrwt>
<rscale>  4 0.23599138E+03</rscale>
<asrwt>0</asrwt>
<pdfrwt beam="1">  1       21 0.40092675E-01 0.25221869E+03</pdfrwt>
<pdfrwt beam="2">  1       21 0.10705159E+00 0.25221869E+03</pdfrwt>
<totfact> 0.40011919E+03</totfact>
</mgrwt>
</event>
<event>
 6      1 +2.5168241e+02 2.53295500e+02 7.54677100e-03 1.12989000e-01
       21 -1    0    0  503  502 +0.0000000000e+00 +0.0000000000e+00 +9.2039813397e+01 9.2039813397e+01 0.0000000000e+00 0.0000e+00 -1.0000e+00
       21 -1    0    0  504  503 -0.0000000000e+00 -0.0000000000e+00 -1.2858643813e+03 1.2858643813e+03 0.0000000000e+00 0.0000e+00 1.0000e+00
        6  1    1    2  501    0 -6.6816648247e+01 +8.1047903531e+01 -4.5022471804e+02 4.9362386883e+02 1.7300000000e+02 0.0000e+00 1.0000e+00
       -6  1    1    2    0  502 +8.7322104557e+01 +1.3880494641e+02 -3.3736626181e+02 4.1308226505e+02 1.7300000000e+02 0.0000e+00 -1.0000e+00
       21  1    1    2  504  505 +2.7224874503e+01 -1.4087354059e+02 -2.0983070383e+02 2.5419573659e+02 0.0000000000e+00 0.0000e+00 -1.0000e+00
       21  1    1    2  505  501 -4.7730330813e+01 -7.8979309351e+01 -1.9640288424e+02 2.1700232424e+02 0.0000000000e+00 0.0000e+00 1.0000e+00
<mgrwt>
<rscale>  4 0.23947958E+03</rscale>
<asrwt>0</asrwt>
<pdfrwt beam="1">  1       21 0.14159972E-01 0.25329546E+03</pdfrwt>
<pdfrwt beam="2">  1       21 0.19782528E+00 0.25329546E+03</pdfrwt>
<totfact> 0.57526287E+03</totfact>
</mgrwt>
</event>
<event>
 6      1 +2.5168241e+02 1.96182400e+02 7.54677100e-03 1.12068800e-01
       21 -1    0    0  504  502 +0.0000000000e+00 +0.0000000000e+00 +6.0840471653e+02 6.0840471653e+02 0.0000000000e+00 0.0000e+00 1.0000e+00
       21 -1    0    0  502  503 -0.0000000000e+00 -0.0000000000e+00 -4.5268247024e+02 4.5268247024e+02 0.0000000000e+00 0.0000e+00 1.0000e+00
        6  1    1    2  501    0 +6.7560061877e+01 -4.4020608418e+01 -1.6754286790e+02 2.5397202308e+02 1.7300000000e+02 0.0000e+00 1.0000e+00
       -6  1    1    2    0  505 -9.2701048497e+01 -2.3268707974e+01 +5.2997562395e+02 5.6563069148e+02 1.7300000000e+02 0.0000e+00 1.0000e+00
       21  1    1    2  504  501 -1.5344503904e+01 +2.4875963085e+01 -2.8582680229e+00 2.9367278314e+01 0.0000000000e+00 0.0000e+00 -1.0000e+00
       21  1    1    2  505  503 +4.0485490524e+01 +4.2413353307e+01 -2.0385224174e+02 2.1211719389e+02 0.0000000000e+00 0.0000e+00 1.0000e+00
<mgrwt>
<rscale>  4 0.19618243E+03</rscale>
<asrwt>0</asrwt>
<pdfrwt beam="1">  1       21 0.93600725E-01 0.19618243E+03</pdfrwt>
<pdfrwt beam="2">  1       21 0.69643457E-01 0.19618243E+03</pdfrwt>
<totfact> 0.17913120E+03</totfact>
</mgrwt>
</event>
<event>
 6      1 +2.5168241e+02 2.32758700e+02 7.54677100e-03 1.16820100e-01
       21 -1    0    0  505  502 +0.0000000000e+00 +0.0000000000e+00 +1.6478731230e+03 1.6478731230e+03 0.0000000000e+00 0.0000e+00 -1.0000e+00
       21 -1    0    0  504  503 -0.0000000000e+00 -0.0000000000e+00 -1.9621275596e+02 1.9621275596e+02 0.0000000000e+00 0.0000e+00 -1.0000e+00
        6  1    1    2  501    0 -7.7968874645e+01 -1.2716889873e+02 +1.4173025001e+02 2.6882622265e+02 1.7300000000e+02 0.0000e+00 1.0000e+00
       -6  1    1    2    0  503 +8.4557621458e+01 +1.2279606983e+02 +3.2249838085e+01 2.3064673891e+02 1.7300000000e+02 0.0000e+00 -1.0000e+00
       21  1    1    2  504  502 -2.5826808333e+01 +7.1656256958e+01 +1.2128830036e+01 7.7128151203e+01 0.0000000000e+00 0.0000e+00 -1.0000e+00
       21  1    1    2  505  501 +1.9238061519e+01 -6.7283428055e+01 +1.2655514489e+03 1.2674847662e+03 0.0000000000e+00 0.0000e+00 -1.0000e+00
<mgrwt>
<rscale>  4 0.23275869E+03</rscale>
<asrwt>0</asrwt>
<pdfrwt beam="1">  1       21 0.25351893E+00 0.23275869E+03</pdfrwt>
<pdfrwt beam="2">  1       21 0.30186579E-01 0.23275869E+03</pdfrwt>
<totfact> 0.63616598E+02</totfact>
</mgrwt>
</event>
<event>
 6      1 +2.5168241e+02 2.54595100e+02 7.54677100e-03 1.16820100e-01
       21 -1    0    0  505  502 +0.0000000000e+00 +0.0000000000e+00 +6.5736480853e+02 6.5736480853e+02 0.0000000000e+00 0.0000e+00 1.0000e+00
       21 -1    0    0  504  503 -0.0000000000e+00 -0.0000000000e+00 -6.1400647905e+02 6.1400647905e+02 0.0000000000e+00 0.0000e+00 -1.0000e+00
        6  1    1    2  501    0 +2.8331168854e+01 -2.2054572548e+02 +1.5726438135e+02 3.2265175933e+02 1.7300000000e+02 0.0000e+00 1.0000e+00
       -6  1    1    2    0  503 +1.2836773475e+02 +1.2472470989e+02 -3.6760169192e+02 4.4395329989e+02 1.7300000000e+02 0.0000e+00 -1.0000e+00
       21  1    1    2  504  502 -1.6138509157e+02 +6.2685502233e+01 -6.4544191385e+01 1.8477167698e+02 0.0000000000e+00 0.0000e+00 -1.0000e+00
       21  1    1    2  505  501 +4.6861879697e+00 +3.3135513356e+01 +3.1823983143e+02 3.1999455138e+02 0.0000000000e+00 0.0000e+00 1.0000e+00
<mgrwt>
<rscale>  4 0.25459509E+03</rscale>
<asrwt>0</asrwt>
<pdfrwt beam="1">  1       21 0.10113305E+00 0.25459509E+03</pdfrwt>
<pdfrwt beam="2">  1       21 0.94462535E-01 0.25459509E+03</pdfrwt>
<totfact> 0.70815016E+02</totfact>
</mgrwt>
</event>
<event>
 6      1 +2.5168241e+02 2.34289400e+02 7.54677100e-03 1.07240600e-01
       21 -1    0    0  505  502 +0.0000000000e+00 +0.0000000000e+00 +7.3426474938e+01 7.3426474938e+01 0.0000000000e+00 0.0000e+00 1.0000e+00
       21 -1    0    0  504  503 -0.0000000000e+00 -0.0000000000e+00 -1.3627181363e+03 1.3627181363e+03 0.0000000000e+00 0.0000e+00 1.0000e+00
        6  1    1    2  501    0 +9.3757097542e+01 +1.3096291603e+02 -6.6705757915e+02 7.0769802361e+02 1.7300000000e+02 0.0000e+00 1.0000e+00
       -6  1    1    2    0  502 -1.3067027537e+02 -1.2265929045e+02 -2.9570651108e+02 3.8664112959e+02 1.7300000000e+02 0.0000e+00 1.0000e+00
       21  1    1    2  504  501 +5.2752490895e+01 +7.2210492304e+00 -9.2502795191e+01 1.0673207562e+02 0.0000000000e+00 0.0000e+00 1.0000e+00
       21  1    1    2  505  503 -1.5839313065e+01 -1.5524674815e+01 -2.3402477590e+02 2.3507338237e+02 0.0000000000e+00 0.0000e+00 1.0000e+00
<mgrwt>
<rscale>  4 0.23428944E+03</rscale>
<asrwt>0</asrwt>
<pdfrwt beam="1">  1       21 0.11296381E-01 0.23428944E+03</pdfrwt>
<pdfrwt beam="2">  1       21 0.20964894E+00 0.23428944E+03</pdfrwt>
<totfact> 0.73624507E+03</totfact>
</mgrwt>
</event>
<event>
 6      1 +2.5168241e+02 2.15251800e+02 7.54677100e-03 1.07240600e-01
       21 -1    0    0  505  502 +0.0000000000e+00 +0.0000000000e+00 +1.9094544917e+02 1.9094544917e+02 0.0000000000e+00 0.0000e+00 -1.0000e+00
       21 -1    0    0  504  503 -0.0000000000e+00 -0.0000000000e+00 -2.2726275021e+03 2.2726275021e+03 0.0000000000e+00 0.0000e+00 -1.0000e+00
        6  1    1    2  501    0 -1.0206218897e+02 -6.0794970121e+01 -1.3117416575e+02 2.4748410165e+02 1.7300000000e+02 0.0000e+00 -1.0000e+00
       -6  1    1    2    0  502 +1.0045185400e+02 +6.5111328074e+01 +4.0978788392e+01 2.1433226802e+02 1.7300000000e+02 0.0000e+00 -1.0000e+00
       21  1    1    2  504  501 +2.2758356680e+01 +1.9985907364e+01 -4.0849139789e+01 5.0853038389e+01 0.0000000000e+00 0.0000e+00 -1.0000e+00
       21  1    1    2  505  503 -2.1148021713e+01 -2.4302265317e+01 -1.9506375357e+03 1.9509035432e+03 0.0000000000e+00 0.0000e+00 -1.0000e+00
<mgrwt>
<rscale>  4 0.21525183E+03</rscale>
<asrwt>0</asrwt>
<pdfrwt beam="1">  1       21 0.29376223E-01 0.21525183E+03</pdfrwt>
<pdfrwt beam="2">  1       21 0.34963500E+00 0.21525183E+03</pdfrwt>
<totfact> 0.18824941E+02</totfact>
</mgrwt>
</event>
<event>
 6      1 +2.5168241e+02 1.77156500e+02 7.54677100e-03 1.06249800e-01
       21 -1    0    0  504  502 +0.0000000000e+00 +0.0000000000e+00 +6.4799776219e+02 6.4799776219e+02 0.0000000000e+00 0.0000e+00 1.0000e+00
       21 -1    0    0  502  503 -0.0000000000e+00 -0.0000000000e+00 -1.8642445083e+02 1.8642445083e+02 0.0000000000e+00 0.0000e+00 1.0000e+00
        6  1    1    2  501    0 -1.9370929153e+01 +1.0854274782e+01 -8.0817949581e+01 1.9223316351e+02 1.7300000000e+02 0.0000e+00 1.0000e+00
       -6  1    1    2    0  503 +9.2553692242e+01 -4.6006982957e+01 +1.8299599404e+02 2.7221198038e+02 1.7300000000e+02 0.0000e+00 1.0000e+00
       21  1    1    2  504  505 -3.7380768166e+01 +3.6073383317e-01 +1.3379862963e+02 1.3892273122e+02 0.0000000000e+00 0.0000e+00 1.0000e+00
       21  1    1    2  505  501 -3.5801994923e+01 +3.4791974342e+01 +2.2559663727e+02 2.3105433791e+02 0.0000000000e+00 0.0000e+00 1.0000e+00
<mgrwt>
<rscale>  4 0.17715654E+03</rscale>
<asrwt>0</asrwt>
<pdfrwt beam="1">  1       21 0.99691962E-01 0.17715654E+03</pdfrwt>
<pdfrwt beam="2">  1       21 0.28680685E-01 0.17715654E+03</pdfrwt>
<totfact> 0.97256157E+03</totfact>
</mgrwt>
</event>
<event>
 6      1 +2.5168241e+02 2.16502400e+02 7.54677100e-03 1.17132900e-01
       21 -1    0    0  503  502 +0.0000000000e+00 +0.0000000000e+00 +2.2830835773e+02 2.2830835773e+02 0.0000000000e+00 0.0000e+00 1.0000e+00
       21 -1    0    0  504  503 -0.0000000000e+00 -0.0000000000e+00 -1.3967305604e+03 1.3967305604e+03 0.0000000000e+00 0.0000e+00 -1.0000e+00
        6  1    1    2  501    0 -1.7046780905e+02 -5.0762364567e+01 -4.4500632097e+01 2.5208212518e+02 1.7300000000e+02 0.0000e+00 -1.0000e+00
       -6  1    1    2    0  505 +7.7492574298e+01 +6.9376286243e+01 -2.8020386852e+02 3.4534240414e+02 1.7300000000e+02 0.0000e+00 1.0000e+00
       21  1    1    2  504  501 +3.8372846998e+01 -2.2368576561e+01 -9.2694232536e+02 9.2800587453e+02 0.0000000000e+00 0.0000e+00 -1.0000e+00
       21  1    1    2  505  502 +5.4602387759e+01 +3.7546548843e+00 +8.3224623332e+01 9.9608514250e+01 0.0000000000e+00 0.0000e+00 1.0000e+00
<mgrwt>
<rscale>  4 0.21650243E+03</rscale>
<asrwt>0</asrwt>
<pdfrwt beam="1">  1       21 0.35124363E-01 0.21650243E+03</pdfrwt>
<pdfrwt beam="2">  1       21 0.21488162E+00 0.21650243E+03</pdfrwt>
<totfact> 0.82287562E+02</totfact>
</mgrwt>
</event>
<event>
 6      1 +2.5168241e+02 2.38511300e+02 7.54677100e-03 1.16584500e-01
       21 -1    0    0  505  502 +0.0000000000e+00 +0.0000000000e+00 +5.7800080941e+02 5.7800080941e+02 0.0000000000e+00 0.0000e+00 1.0000e+00
       21 -1    0    0  501  503 -0.0000000000e+00 -0.0000000000e+00 -2.0383432367e+02 2.0383432367e+02 0.0000000000e+00 0.0000e+00 1.0000e+00
        6  1    1    2  501    0 +1.4373700861e+02 -1.7752155266e+02 +3.0211851823e+02 4.1638783407e+02 1.7300000000e+02 0.0000e+00 1.0000e+00
       -6  1    1    2    0  502 -4.0454988362e+01 +6.2158760638e+01 +2.9825872815e+01 1.9057518279e+02 1.7300000000e+02 0.0000e+00 1.0000e+00
       21  1    1    2  504  503 -3.1485409121e+01 +2.4559910359e+01 -1.8664354665e+01 4.4078093418e+01 0.0000000000e+00 0.0000e+00 1.0000e+00
       21  1    1    2  505  504 -7.1796611126e+01 +9.0802881660e+01 +6.0886449356e+01 1.3079402281e+02 0.0000000000e+00 0.0000e+00 1.0000e+00
<mgrwt>
<rscale>  4 0.23851131E+03</rscale>
<asrwt>0</asrwt>
<pdfrwt beam="1">  1       21 0.88923201E-01 0.23851131E+03</pdfrwt>
<pdfrwt beam="2">  1       21 0.31359127E-01 0.23851131E+03</pdfrwt>
<totfact> 0.10248318E+04</totfact>
</mgrwt>
</event>
<event>
 6      1 +2.5168241e+02 2.37079600e+02 7.54677100e-03 1.11671100e-01
       21 -1    0    0  503  502 +0.0000000000e+00 +0.0000000000e+00 +2.3442021669e+03 2.3442021669e+03 0.0000000000e+00 0.0000e+00 1.0000e+00
       21 -1    0    0  501  503 -0.0000000000e+00 -0.0000000000e+00 -3.6739364636e+01 3.6739364636e+01 0.0000000000e+00 0.0000e+00 1.0000e+00
        6  1    1    2  501    0 +3.4716616732e+01 -1.3957451117e+02 +6.5561604490e+02 6.9314333725e+02 1.7300000000e+02 0.0000e+00 1.0000e+00
       -6  1    1    2    0  504 -2.6171022708e+01 +1.8830865161e+02 +9.9653814791e+02 1.0291561354e+03 1.7300000000e+02 0.0000e+00 1.0000e+00
       21  1    1    2  504  505 +1.0944214928e+01 -3.5418820462e+01 +2.6001870969e+02 2.6264804982e+02 0.0000000000e+00 0.0000e+00 -1.0000e+00
       21  1    1    2  505  502 -1.9489808952e+01 -1.3315319977e+01 +3.9528989976e+02 3.9599400911e+02 0.0000000000e+00 0.0000e+00 1.0000e+00
<mgrwt>
<rscale>  4 0.23707960E+03</rscale>
<asrwt>0</asrwt>
<pdfrwt beam="1">  1       21 0.36064637E+00 0.23707960E+03</pdfrwt>
<pdfrwt beam="2">  1       21 0.56522118E-02 0.23707960E+03</pdfrwt>
<totfact> 0.31271281E+03</totfact>
</mgrwt>
</event>
<event>
 6      1 +2.5168241e+02 1.75726700e+02 7.54677100e-03 1.07064900e-01
       21 -1    0    0  504  502 +0.0000000000e+00 +0.0000000000e+00 +2.1996556507e+02 2.1996556507e+02 0.0000000000e+00 0.0000e+00 1.0000e+00
       21 -1    0    0  501  503 -0.0000000000e+00 -0.0000000000e+00 -3.0019560800e+02 3.0019560800e+02 0.0000000000e+00 0.0000e+00 1.0000e+00
        6  1    1    2  501    0 -6.8788793071e+00 +4.4748944067e+01 -1.1570798380e+02 2.1299559735e+02 1.7300000000e+02 0.0000e+00 -1.0000e+00
       -6  1    1    2    0  505 +2.6548129589e+01 -2.5158257690e+00 -5.0379144496e+01 1.8214881489e+02 1.7300000000e+02 0.0000e+00 1.0000e+00
       21  1    1    2  504  503 -4.3780640966e+01 -1.4632596209e+01 +7.2621948871e+01 8.6051175779e+01 0.0000000000e+00 0.0000e+00 1.0000e+00
       21  1    1    2  505  502 +2.4111390684e+01 -2.7600522089e+01 +1.3235136505e+01 3.8965585054e+01 0.0000000000e+00 0.0000e+00 1.0000e+00
<mgrwt>
<rscale>  4 0.17572674E+03</rscale>
<asrwt>0</asrwt>
<pdfrwt beam="1">  1       21 0.33840856E-01 0.17572674E+03</pdfrwt>
<pdfrwt beam="2">  1       21 0.46183939E-01 0.17572674E+03</pdfrwt>
<totfact> 0.38117813E+04</totfact>
</mgrwt>
</event>
<event>
 6      1 +2.5168241e+02 1.95304200e+02 7.54677100e-03 1.16820100e-01
       21 -1    0    0  505  502 +0.0000000000e+00 +0.0000000000e+00 +1.7758878208e+03 1.7758878208e+03 0.0000000000e+00 0.0000e+00 1.0000e+00
       21 -1    0    0  504  503 -0.0000000000e+00 -0.0000000000e+00 -6.0681194993e+01 6.0681194993e+01 0.0000000000e+00 0.0000e+00 -1.0000e+00
        6  1    1    2  501    0 -3.1952480942e+01 -1.0493581935e+02 +3.9950775648e+02 4.4896317746e+02 1.7300000000e+02 0.0000e+00 -1.0000e+00
       -6  1    1    2    0  503 +3.8888851810e-01 +6.6823657899e+01 +6.5496900036e+02 6.8071943113e+02 1.7300000000e+02 0.0000e+00 1.0000e+00
       21  1    1    2  504  502 +3.2551709176e+01 +1.1037459736e+00 -1.0817126867e+01 3.4319706571e+01 0.0000000000e+00 0.0000e+00 -1.0000e+00
       21  1    1    2  505  501 -9.8811675202e-01 +3.7008415480e+01 +6.7154699579e+02 6.7256670059e+02 0.0000000000e+00 0.0000e+00 1.0000e+00
<mgrwt>
<rscale>  4 0.19530419E+03</rscale>
<asrwt>0</asrwt>
<pdfrwt beam="1">  1       21 0.27321347E+00 0.19530419E+03</pdfrwt>
<pdfrwt beam="2">  1       21 0.93355698E-02 0.19530419E+03</pdfrwt>
<totfact> 0.44480945E+03</totfact>
</mgrwt>
</event>
<event>
 6      1 +2.5168241e+02 2.18740200e+02 7.54677100e-03 1.15832300e-01
       21 -1    0    0  501  502 +0.0000000000e+00 +0.0000000000e+00 +7.4014972595e+02 7.4014972595e+02 0.0000000000e+00 0.0000e+00 1.0000e+00
       21 -1    0    0  505  503 -0.0000000000e+00 -0.0000000000e+00 -8.6640715093e+02 8.6640715093e+02 0.0000000000e+00 0.0000e+00 -1.0000e+00
        6  1    1    2  501    0 +1.0660298895e+02 -2.3720833394e+01 +8.4494597452e+01 2.2134862138e+02 1.7300000000e+02 0.0000e+00 -1.0000e+00
       -6  1    1    2    0  504 -1.4146785559e+02 +2.3782167802e+01 +4.4982484818e+02 5.0284206239e+02 1.7300000000e+02 0.0000e+00 1.0000e+00
       21  1    1    2  504  503 +1.1878419728e+02 -9.1364903539e+01 +5.2346972750e+01 1.5873700475e+02 0.0000000000e+00 0.0000e+00 -1.0000e+00
       21  1    1    2  505  502 -8.3919330632e+01 +9.1303569131e+01 -7.1292384337e+02 7.2362918835e+02 0.0000000000e+00 0.0000e+00 -1.0000e+00
<mgrwt>
<rscale>  4 0.21874018E+03</rscale>
<asrwt>0</asrwt>
<pdfrwt beam="1">  1       21 0.11386919E+00 0.21874018E+03</pdfrwt>
<pdfrwt beam="2">  1       21 0.13329341E+00 0.21874018E+03</pdfrwt>
<totfact> 0.23626068E+02</totfact>
</mgrwt>
</event>
<event>
 6      1 +2.5168241e+02 2.72409000e+02 7.54677100e-03 1.09842800e-01
       21 -1    0    0  501  502 +0.0000000000e+00 +0.0000000000e+00 +2.7101499206e+02 2.7101499206e+02 0.0000000000e+00 0.0000e+00 1.0000e+00
       21 -1    0    0  505  503 -0.0000000000e+00 -0.0000000000e+00 -4.0114214135e+02 4.0114214135e+02 0.0000000000e+00 0.0000e+00 1.0000e+00
        6  1    1    2  501    0 -1.7083957168e+02 -1.4441417406e+02 -1.3989891225e+02 3.1550327823e+02 1.7300000000e+02 0.0000e+00 1.0000e+00
       -6  1    1    2    0  504 +1.3301154098e+02 +1.4129331900e+02 +2.0407646664e+01 2.6077067333e+02 1.7300000000e+02 0.0000e+00 1.0000e+00
       21  1    1    2  504  503 +2.6774521247e+01 -1.9385244971e+01 -4.3444518561e+01 5.4590190543e+01 0.0000000000e+00 0.0000e+00 -1.0000e+00
       21  1    1    2  505  502 +1.1053509456e+01 +2.2506100032e+01 +3.2808634861e+01 4.1292991311e+01 0.0000000000e+00 0.0000e+00 1.0000e+00
<mgrwt>
<rscale>  4 0.27240905E+03</rscale>
<asrwt>0</asrwt>
<pdfrwt beam="1">  1       21 0.41694614E-01 0.27240905E+03</pdfrwt>
<pdfrwt beam="2">  1       21 0.61714175E-01 0.27240905E+03</pdfrwt>
<totfact> 0.12907898E+04</totfact>
</mgrwt>
</event>
<event>
 6      1 +2.5168241e+02 2.47537000e+02 7.54677100e-03 1.07064900e-01
       21 -1    0    0  504  502 +0.0000000000e+00 +0.0000000000e+00 +8.1944970274e+01 8.1944970274e+01 0.0000000000e+00 0.0000e+00 -1.0000e+00
       21 -1    0    0  501  503 -0.0000000000e+00 -0.0000000000e+00 -1.0595096403e+03 1.0595096403e+03 0.0000000000e+00 0.0000e+00 -1.0000e+00
        6  1    1    2  501    0 +1.8737301440e+02 -1.1266785538e+01 -6.0919326739e+02 6.6051572579e+02 1.7300000000e+02 0.0000e+00 -1.0000e+00
       -6  1    1    2    0  505 -1.6065631291e+02 -7.0014980303e-01 -3.0883561133e+02 3.8874075669e+02 1.7300000000e+02 0.0000e+00 -1.0000e+00
       21  1    1    2  504  503 -3.1453249579e+01 -1.9528405531e+01 -4.1430628172e+01 5.5562239717e+01 0.0000000000e+00 0.0000e+00 -1.0000e+00
       21  1    1    2  505  502 +4.7365480836e+00 +3.1495340873e+01 -1.8105163124e+01 3.6635888364e+01 0.0000000000e+00 0.0000e+00 -1.0000e+00
<mgrwt>
<rscale>  4 0.24753701E+03</rscale>
<asrwt>0</asrwt>
<pdfrwt beam="1">  1       21 0.12606919E-01 0.24753701E+03</pdfrwt>
<pdfrwt beam="2">  1       21 0.16300148E+00 0.24753701E+03</pdfrwt>
<totfact> 0.12384905E+04</totfact>
</mgrwt>
</event>
<event>
 6      1 +2.5168241e+02 3.20586900e+02 7.54677100e-03 1.07064900e-01
       21 -1    0    0  505  502 +0.0000000000e+00 +0.0000000000e+00 +7.5110396649e+02 7.5110396649e+02 0.0000000000e+00 0.0000e+00 -1.0000e+00
       21 -1    0    0  501  503 -0.0000000000e+00 -0.0000000000e+00 -2.9526850930e+02 2.9526850930e+02 0.0000000000e+00 0.0000e+00 1.0000e+00
        6  1    1    2  501    0 -1.8493839849e+02 -1.4804659835e+02 -8.0642238131e+01 3.0422389302e+02 1.7300000000e+02 0.0000e+00 1.0000e+00
       -6  1    1    2    0  502 +3.0237155960e+01 -8.4253940913e+01 +9.3933571524e+01 2.1625338846e+02 1.7300000000e+02 0.0000e+00 1.0000e+00
       21  1    1    2  504  503 +1.4114080876e+02 +2.0305250177e+02 +3.5529597950e+02 4.3288136877e+02 0.0000000000e+00 0.0000e+00 -1.0000e+00
       21  1    1    2  505  504 +1.3560433761e+01 +2.9248037489e+01 +8.7248144285e+01 9.3013825541e+01 0.0000000000e+00 0.0000e+00 -1.0000e+00
<mgrwt>
<rscale>  4 0.28304103E+03</rscale>
<asrwt>0</asrwt>
<pdfrwt beam="1">  1       21 0.11555446E+00 0.32058691E+03</pdfrwt>
<pdfrwt beam="2">  1       21 0.45425925E-01 0.32058691E+03</pdfrwt>
<totfact> 0.24641079E+03</totfact>
</mgrwt>
</event>
<event>
 6      1 +2.5168241e+02 2.57191800e+02 7.54677100e-03 9.87464100e-02
       21 -1    0    0  503  502 +0.0000000000e+00 +0.0000000000e+00 +7.7873796724e+02 7.7873796724e+02 0.0000000000e+00 0.0000e+00 1.0000e+00
       21 -1    0    0  505  503 -0.0000000000e+00 -0.0000000000e+00 -5.8709980940e+02 5.8709980940e+02 0.0000000000e+00 0.0000e+00 -1.0000e+00
        6  1    1    2  501    0 +2.3544848255e+02 +5.7976653190e+01 +4.4899572449e+02 5.3881670433e+02 1.7300000000e+02 0.0000e+00 -1.0000e+00
       -6  1    1    2    0  504 -1.3181807601e+02 +2.6992098520e+01 +1.5927655476e+02 2.7092914100e+02 1.7300000000e+02 0.0000e+00 1.0000e+00
       21  1    1    2  504  502 -5.1274307177e+01 -1.0362300421e+02 +1.8792705777e+01 1.1713217905e+02 0.0000000000e+00 0.0000e+00 -1.0000e+00
       21  1    1    2  505  501 -5.2356099371e+01 +1.8654252502e+01 -4.3542682718e+02 4.3895975226e+02 0.0000000000e+00 0.0000e+00 -1.0000e+00
<mgrwt>
<rscale>  4 0.25719182E+03</rscale>
<asrwt>0</asrwt>
<pdfrwt beam="1">  1       21 0.11980584E+00 0.25719182E+03</pdfrwt>
<pdfrwt beam="2">  1       21 0.90323048E-01 0.25719182E+03</pdfrwt>
<totfact> 0.51888162E+02</totfact>
</mgrwt>
</event>
<event>
 6      1 +2.5168241e+02 3.12555800e+02 7.54677100e-03 1.07240600e-01
       21 -1    0    0  505  502 +0.0000000000e+00 +0.0000000000e+00 +9.1845604975e+02 9.1845604975e+02 0.0000000000e+00 0.0000e+00 1.0000e+00
       21 -1    0    0  504  503 -0.0000000000e+00 -0.0000000000e+00 -1.6327071423e+02 1.6327071423e+02 0.0000000000e+00 0.0000e+00 -1.0000e+00
        6  1    1    2  501    0 -2.2223210443e+02 -1.3619016536e+02 +3.3562088295e+02 4.5880850739e+02 1.7300000000e+02 0.0000e+00 -1.0000e+00
       -6  1    1    2    0  502 +2.2924621877e+02 +1.2315687423e+02 +4.4702638013e+02 5.4542004824e+02 1.7300000000e+02 0.0000e+00 1.0000e+00
       21  1    1    2  504  501 -2.0765091678e+01 -1.2277440774e+01 +1.3330094420e+01 2.7561132081e+01 0.0000000000e+00 0.0000e+00 1.0000e+00
       21  1    1    2  505  503 +1.3750977344e+01 +2.5310731911e+01 -4.0792021984e+01 4.9937076259e+01 0.0000000000e+00 0.0000e+00 -1.0000e+00
<mgrwt>
<rscale>  4 0.31255581E+03</rscale>
<asrwt>0</asrwt>
<pdfrwt beam="1">  1       21 0.14130093E+00 0.31255581E+03</pdfrwt>
<pdfrwt beam="2">  1       21 0.25118572E-01 0.31255581E+03</pdfrwt>
<totfact> 0.48446798E+03</totfact>
</mgrwt>
</event>
<event>
 6      1 +2.5168241e+02 2.00075200e+02 7.54677100e-03 1.15942100e-01
       21 -1    0    0  504  502 +0.0000000000e+00 +0.0000000000e+00 +4.7948672721e+02 4.7948672721e+02 0.0000000000e+00 0.0000e+00 1.0000e+00
       21 -1    0    0  501  503 -0.0000000000e+00 -0.0000000000e+00 -3.7741577388e+02 3.7741577388e+02 0.0000000000e+00 0.0000e+00 -1.0000e+00
        6  1    1    2  501    0 +4.5318913804e+01 +9.9601054004e+01 +3.0883154741e+02 3.7051329070e+02 1.7300000000e+02 0.0000e+00 1.0000e+00
       -6  1    1    2    0  502 -4.0611243928e+01 -6.9489347684e+01 +5.9217187346e+01 1.9978417818e+02 1.7300000000e+02 0.0000e+00 -1.0000e+00
       21  1    1    2  504  505 -2.6063704721e+01 +2.8897066597e+00 -1.0706309993e+01 2.8324762700e+01 0.0000000000e+00 0.0000e+00 -1.0000e+00
       21  1    1    2  505  503 +2.1356034845e+01 -3.3001412980e+01 -2.5527147144e+02 2.5828026950e+02 0.0000000000e+00 0.0000e+00 -1.0000e+00
<mgrwt>
<rscale>  4 0.20007517E+03</rscale>
<asrwt>0</asrwt>
<pdfrwt beam="1">  1       21 0.73767189E-01 0.20007517E+03</pdfrwt>
<pdfrwt beam="2">  1       21 0.58063965E-01 0.20007517E+03</pdfrwt>
<totfact> 0.45590265E+03</totfact>
</mgrwt>
</event>
<event>
 6      1 +2.5168241e+02 1.91080400e+02 7.54677100e-03 1.17132900e-01
       21 -1    0    0  505  502 +0.0000000000e+00 +0.0000000000e+00 +2.8554132209e+02 2.8554132209e+02 0.0000000000e+00 0.0000e+00 -1.0000e+00
       21 -1    0    0  504  503 -0.0000000000e+00 -0.0000000000e+00 -3.9109403394e+02 3.9109403394e+02 0.0000000000e+00 0.0000e+00 -1.0000e+00
        6  1    1    2  501    0 +8.4881320890e+01 +4.4502158576e+01 +1.8835213077e+02 2.7311317419e+02 1.7300000000e+02 0.0000e+00 -1.0000e+00
       -6  1    1    2    0  502 -2.6290777913e+01 +9.4784657739e+00 -1.3480278409e+02 2.2109237191e+02 1.7300000000e+02 0.0000e+00 -1.0000e+00
       21  1    1    2  504  501 -3.3219523578e+01 -9.2418779992e+00 -8.9300208102e+01 9.5726047776e+01 0.0000000000e+00 0.0000e+00 -1.0000e+00
       21  1    1    2  505  503 -2.5371019399e+01 -4.4738746350e+01 -6.9801850418e+01 8.6703762157e+01 0.0000000000e+00 0.0000e+00 1.0000e+00
<mgrwt>
<rscale>  4 0.19108041E+03</rscale>
<asrwt>0</asrwt>
<pdfrwt beam="1">  1       21 0.43929434E-01 0.19108041E+03</pdfrwt>
<pdfrwt beam="2">  1       21 0.60168313E-01 0.19108041E+03</pdfrwt>
<totfact> 0.12836394E+04</totfact>
</mgrwt>
</event>
<event>
 6      1 +2.5168241e+02 1.87132700e+02 7.54677100e-03 1.17132900e-01
       21 -1    0    0  505  502 +0.0000000000e+00 +0.0000000000e+00 +3.3953728329e+02 3.3953728329e+02 0.0000000000e+00 0.0000e+00 1.0000e+00
       21 -1    0    0  504  503 -0.0000000000e+00 -0.0000000000e+00 -7.5605000805e+02 7.5605000805e+02 0.0000000000e+00 0.0000e+00 1.0000e+00
        6  1    1    2  501    0 +6.6309083236e+01 -4.0085203628e+00 +5.9128701172e+01 1.9452034870e+02 1.7300000000e+02 0.0000e+00 1.0000e+00
       -6  1    1    2    0  502 -1.4468629741e+02 +1.0444164231e+02 -2.7389274477e+02 3.6984918135e+02 1.7300000000e+02 0.0000e+00 1.0000e+00
       21  1    1    2  504  501 +1.0137715856e+02 -9.4693224915e+01 -3.5239551864e+02 3.7871722522e+02 0.0000000000e+00 0.0000e+00 1.0000e+00
       21  1    1    2  505  503 -2.2999944381e+01 -5.7398970358e+00 +1.5064683747e+02 1.5250053607e+02 0.0000000000e+00 0.0000e+00 1.0000e+00
<mgrwt>
<rscale>  4 0.18713270E+03</rscale>
<asrwt>0</asrwt>
<pdfrwt beam="1">  1       21 0.52236505E-01 0.18713270E+03</pdfrwt>
<pdfrwt beam="2">  1       21 0.11631539E+00 0.18713270E+03</pdfrwt>
<totfact> 0.19929442E+03</totfact>
</mgrwt>
</event>
<event>
 6      1 +2.5168241e+02 6.78518200e+02 7.54677100e-03 1.03924000e-01
       21 -1    0    0  504  502 +0.0000000000e+00 +0.0000000000e+00 +7.3904957330e+02 7.3904957330e+02 0.0000000000e+00 0.0000e+00 1.0000e+00
       21 -1    0    0  501  503 -0.0000000000e+00 -0.0000000000e+00 -1.5391711950e+03 1.5391711950e+03 0.0000000000e+00 0.0000e+00 1.0000e+00
        6  1    1    2  501    0 +1.2750741755e+02 -3.1766874050e+02 -7.4880597683e+02 8.4131501898e+02 1.7300000000e+02 0.0000e+00 1.0000e+00
       -6  1    1    2    0  505 -6.5549999445e+01 -2.3695919939e+02 -5.5410059730e+02 6.3039902961e+02 1.7300000000e+02 0.0000e+00 -1.0000e+00
       21  1    1    2  504  503 +3.6955680995e+01 +1.3222389032e+01 -2.2884192318e+01 4.5433910106e+01 0.0000000000e+00 0.0000e+00 1.0000e+00
       21  1    1    2  505  502 -9.8913099095e+01 +5.4140555086e+02 +5.2566914480e+02 7.6107280957e+02 0.0000000000e+00 0.0000e+00 1.0000e+00
<mgrwt>
<rscale>  4 0.67851822E+03</rscale>
<asrwt>0</asrwt>
<pdfrwt beam="1">  1       21 0.11369993E+00 0.67851822E+03</pdfrwt>
<pdfrwt beam="2">  1       21 0.23679557E+00 0.67851822E+03</pdfrwt>
<totfact> 0.32824315E+01</totfact>
</mgrwt>
</event>
<event>
 6      1 +2.5168241e+02 3.93600600e+02 7.54677100e-03 1.05831300e-01
       21 -1    0    0  504  502 +0.0000000000e+00 +0.0000000000e+00 +4.9167901350e+02 4.9167901350e+02 0.0000000000e+00 0.0000e+00 -1.0000e+00
       21 -1    0    0  501  503 -0.0000000000e+00 -0.0000000000e+00 -5.9185610173e+02 5.9185610173e+02 0.0000000000e+00 0.0000e+00 -1.0000e+00
        6  1    1    2  501    0 -3.7256749646e+02 -1.6128109667e+02 -2.2400298348e+02 4.9489844228e+02 1.7300000000e+02 0.0000e+00 -1.0000e+00
       -6  1    1    2    0  505 +9.2885931600e+01 +4.4051941662e+01 +1.8156716413e+02 2.7104244122e+02 1.7300000000e+02 0.0000e+00 -1.0000e+00
       21  1    1    2  504  503 +2.5060595904e+02 +9.4973041352e+01 -7.3250983806e+01 2.7782896163e+02 0.0000000000e+00 0.0000e+00 -1.0000e+00
       21  1    1    2  505  502 +2.9075605820e+01 +2.2256113660e+01 +1.5509714931e+01 3.9765270102e+01 0.0000000000e+00 0.0000e+00 -1.0000e+00
<mgrwt>
<rscale>  4 0.33282826E+03</rscale>
<asrwt>0</asrwt>
<pdfrwt beam="1">  1       21 0.75642925E-01 0.39360064E+03</pdfrwt>
<pdfrwt beam="2">  1       21 0.91054785E-01 0.39360064E+03</pdfrwt>
<totfact> 0.13988316E+03</totfact>
</mgrwt>
</event>
<event>
 6      1 +2.5168241e+02 4.00609900e+02 7.54677100e-03 1.07240600e-01
       21 -1    0    0  505  502 +0.0000000000e+00 +0.0000000000e+00 +8.7726174808e+02 8.7726174808e+02 0.0000000000e+00 0.0000e+00 -1.0000e+00
       21 -1    0    0  504  503 -0.0000000000e+00 -0.0000000000e+00 -9.8776073774e+02 9.8776073774e+02 0.0000000000e+00 0.0000e+00 1.0000e+00
        6  1    1    2  501    0 +2.3303653771e+02 +2.5072940117e+02 +6.1618941878e+01 3.8845482944e+02 1.7300000000e+02 0.0000e+00 -1.0000e+00
       -6  1    1    2    0  502 -3.5103562413e+02 -2.1837803422e+02 +4.5231007710e+02 6.3673258209e+02 1.7300000000e+02 0.0000e+00 1.0000e+00
       21  1    1    2  504  501 +9.8759751433e+01 -1.4731125835e+01 +8.4268448026e+01 1.3065858527e+02 0.0000000000e+00 0.0000e+00 -1.0000e+00
       21  1    1    2  505  503 +1.9239334991e+01 -1.7620241113e+01 -7.0869645666e+02 7.0917648903e+02 0.0000000000e+00 0.0000e+00 1.0000e+00
<mgrwt>
<rscale>  4 0.40060991E+03</rscale>
<asrwt>0</asrwt>
<pdfrwt beam="1">  1       21 0.13496335E+00 0.40060991E+03</pdfrwt>
<pdfrwt beam="2">  1       21 0.15196319E+00 0.40060991E+03</pdfrwt>
<totfact> 0.93521203E+01</totfact>
</mgrwt>
</event>
<event>
 6      1 +2.5168241e+02 2.64391000e+02 7.54677100e-03 1.09842800e-01
       21 -1    0    0  505  502 +0.0000000000e+00 +0.0000000000e+00 +2.8534994822e+02 2.8534994822e+02 0.0000000000e+00 0.0000e+00 -1.0000e+00
       21 -1    0    0  502  503 -0.0000000000e+00 -0.0000000000e+00 -3.9717559104e+02 3.9717559104e+02 0.0000000000e+00 0.0000e+00 1.0000e+00
        6  1    1    2  501    0 +1.8367638867e+02 +3.8363992689e+01 +9.0748779373e+01 2.7087479146e+02 1.7300000000e+02 0.0000e+00 -1.0000e+00
       -6  1    1    2    0  504 -1.9804368941e+02 -6.1952011921e+01 -1.9751625180e+02 3.3466554113e+02 1.7300000000e+02 0.0000e+00 1.0000e+00
       21  1    1    2  504  503 -4.3221557643e+00 +3.3537486184e+01 -2.9339750560e+01 4.4769018003e+01 0.0000000000e+00 0.0000e+00 -1.0000e+00
       21  1    1    2  505  501 +1.8689456513e+01 -9.9494669524e+00 +2.4281580159e+01 3.2216188670e+01 0.0000000000e+00 0.0000e+00 -1.0000e+00
<mgrwt>
<rscale>  4 0.26439100E+03</rscale>
<asrwt>0</asrwt>
<pdfrwt beam="1">  1       21 0.43899992E-01 0.26439100E+03</pdfrwt>
<pdfrwt beam="2">  1       21 0.61103937E-01 0.26439100E+03</pdfrwt>
<totfact> 0.11910536E+04</totfact>
</mgrwt>
</event>
<event>
 6      1 +2.5168241e+02 4.84039000e+02 7.54677100e-03 1.11671100e-01
       21 -1    0    0  503  502 +0.0000000000e+00 +0.0000000000e+00 +2.4040348107e+02 2.4040348107e+02 0.0000000000e+00 0.0000e+00 1.0000e+00
       21 -1    0    0  501  503 -0.0000000000e+00 -0.0000000000e+00 -2.0337304566e+03 2.0337304566e+03 0.0000000000e+00 0.0000e+00 1.0000e+00
        6  1    1    2  501    0 +4.0366420013e+01 -7.0457285632e+01 -1.5850751192e+02 2.4828875991e+02 1.7300000000e+02 0.0000e+00 -1.0000e+00
       -6  1    1    2    0  504 +4.1605651928e+02 +4.9881225835e+01 -3.5448558783e+02 5.7548257655e+02 1.7300000000e+02 0.0000e+00 1.0000e+00
       21  1    1    2  504  505 -4.6463377154e+02 -2.7892777751e+00 -1.3223409614e+03 1.4015983519e+03 0.0000000000e+00 0.0000e+00 1.0000e+00
       21  1    1    2  505  502 +8.2108322445e+00 +2.3365337572e+01 +4.2007085659e+01 4.8764249318e+01 0.0000000000e+00 0.0000e+00 -1.0000e+00
<mgrwt>
<rscale>  4 0.38293270E+03</rscale>
<asrwt>0</asrwt>
<pdfrwt beam="1">  1       21 0.36985150E-01 0.48403904E+03</pdfrwt>
<pdfrwt beam="2">  1       21 0.31288162E+00 0.48403904E+03</pdfrwt>
<totfact> 0.15427927E+02</totfact>
</mgrwt>
</event>
<event>
 6      1 +2.5168241e+02 2.39648000e+02 7.54677100e-03 1.16820100e-01
       21 -1    0    0  504  502 +0.0000000000e+00 +0.0000000000e+00 +4.2403041294e+02 4.2403041294e+02 0.0000000000e+00 0.0000e+00 1.0000e+00
       21 -1    0    0  501  503 -0.0000000000e+00 -0.0000000000e+00 -3.4494629073e+02 3.4494629073e+02 0.0000000000e+00 0.0000e+00 1.0000e+00
        6  1    1    2  501    0 -1.6364857265e+02 -4.3280528411e+01 -2.0568883115e+02 3.1763336526e+02 1.7300000000e+02 0.0000e+00 1.0000e+00
       -6  1    1    2    0  505 +1.3532429660e+02 +5.1160539257e+01 +2.6648013503e+02 3.4909988312e+02 1.7300000000e+02 0.0000e+00 1.0000e+00
       21  1    1    2  504  503 +6.5410723704e+00 -2.2551041599e+01 -3.5395567607e+01 4.2475655512e+01 0.0000000000e+00 0.0000e+00 -1.0000e+00
       21  1    1    2  505  502 +2.1783203678e+01 +1.4671030753e+01 +5.3688385933e+01 5.9767799774e+01 0.0000000000e+00 0.0000e+00 -1.0000e+00
<mgrwt>
<rscale>  4 0.23964796E+03</rscale>
<asrwt>0</asrwt>
<pdfrwt beam="1">  1       21 0.65235448E-01 0.23964796E+03</pdfrwt>
<pdfrwt beam="2">  1       21 0.53068660E-01 0.23964796E+03</pdfrwt>
<totfact> 0.70448590E+03</totfact>
</mgrwt>
</event>
<event>
 6      1 +2.5168241e+02 1.80144700e+02 7.54677100e-03 1.15942100e-01
       21 -1    0    0  504  502 +0.0000000000e+00 +0.0000000000e+00 +6.7465350778e+02 6.7465350778e+02 0.0000000000e+00 0.0000e+00 -1.0000e+00
       21 -1    0    0  501  503 -0.0000000000e+00 -0.0000000000e+00 -1.1576072921e+02 1.1576072921e+02 0.0000000000e+00 0.0000e+00 -1.0000e+00
        6  1    1    2  501    0 -5.3079697589e+01 +6.0141434613e+01 +4.7569983419e+01 1.9653587402e+02 1.7300000000e+02 0.0000e+00 -1.0000e+00
       -6  1    1    2    0  502 +4.5158242229e+01 -1.0375461820e+01 +5.0222797531e+02 5.3320620424e+02 1.7300000000e+02 0.0000e+00 -1.0000e+00
       21  1    1    2  504  505 -1.2274807499e+01 -1.6219053350e+01 -5.3834771528e-01 2.0347442321e+01 0.0000000000e+00 0.0000e+00 -1.0000e+00
       21  1    1    2  505  503 +2.0196262860e+01 -3.3546919443e+01 +9.6331675532e+00 4.0324716425e+01 0.0000000000e+00 0.0000e+00 -1.0000e+00
<mgrwt>
<rscale>  4 0.18014474E+03</rscale>
<asrwt>0</asrwt>
<pdfrwt beam="1">  1       21 0.10379284E+00 0.18014474E+03</pdfrwt>
<pdfrwt beam="2">  1       21 0.17809343E-01 0.18014474E+03</pdfrwt>
<totfact> 0.21673666E+04</totfact>
</mgrwt>
</event>
<event>
 6      1 +2.5168241e+02 2.84607100e+02 7.54677100e-03 1.11471900e-01
       21 -1    0    0  503  502 +0.0000000000e+00 +0.0000000000e+00 +2.5368011111e+03 2.5368011111e+03 0.0000000000e+00 0.0000e+00 1.0000e+00
       21 -1    0    0  501  503 -0.0000000000e+00 -0.0000000000e+00 -4.8968728463e+01 4.8968728463e+01 0.0000000000e+00 0.0000e+00 1.0000e+00
        6  1    1    2  501    0 -2.2563475963e+02 +1.1410893031e+02 +1.2742857292e+03 1.3105971969e+03 1.7300000000e+02 0.0000e+00 1.0000e+00
       -6  1    1    2    0  505 +1.3731432535e+02 -1.5585075409e+02 +8.7105254026e+02 9.1203410539e+02 1.7300000000e+02 0.0000e+00 1.0000e+00
       21  1    1    2  504  502 +1.4078019928e+01 -1.5073899430e+01 +1.2065393620e+02 1.2240418869e+02 0.0000000000e+00 0.0000e+00 1.0000e+00
       21  1    1    2  505  504 +7.4242414349e+01 +5.6815723210e+01 +2.2184017694e+02 2.4073434860e+02 0.0000000000e+00 0.0000e+00 1.0000e+00
<mgrwt>
<rscale>  4 0.28460705E+03</rscale>
<asrwt>0</asrwt>
<pdfrwt beam="1">  1       21 0.39027699E+00 0.28460705E+03</pdfrwt>
<pdfrwt beam="2">  1       21 0.75336525E-02 0.28460705E+03</pdfrwt>
<totfact> 0.11906478E+03</totfact>
</mgrwt>
</event>
<event>
 6      1 +2.5168241e+02 2.54761800e+02 7.54677100e-03 1.17132900e-01
       21 -1    0    0  503  502 +0.0000000000e+00 +0.0000000000e+00 +9.1945651743e+02 9.1945651743e+02 0.0000000000e+00 0.0000e+00 -1.0000e+00
       21 -1    0    0  504  503 -0.0000000000e+00 -0.0000000000e+00 -2.3815149538e+02 2.3815149538e+02 0.0000000000e+00 0.0000e+00 -1.0000e+00
        6  1    1    2  501    0 -1.6846076979e+02 -5.7583306193e+01 +3.4090364731e+01 2.5057138919e+02 1.7300000000e+02 0.0000e+00 -1.0000e+00
       -6  1    1    2    0  505 +1.8021276665e+02 +8.8383564497e+01 +3.5494780980e+01 2.6735215581e+02 1.7300000000e+02 0.0000e+00 -1.0000e+00
       21  1    1    2  504  501 +3.4798562954e+01 -7.9918113997e+00 +1.1909667094e+01 3.7638400649e+01 0.0000000000e+00 0.0000e+00 1.0000e+00
       21  1    1    2  505  502 -4.6550559815e+01 -2.2808446904e+01 +5.9981020925e+02 6.0204606717e+02 0.0000000000e+00 0.0000e+00 -1.0000e+00
<mgrwt>
<rscale>  4 0.25476179E+03</rscale>
<asrwt>0</asrwt>
<pdfrwt beam="1">  1       21 0.14145485E+00 0.25476179E+03</pdfrwt>
<pdfrwt beam="2">  1       21 0.36638692E-01 0.25476179E+03</pdfrwt>
<totfact> 0.23787715E+03</totfact>
</mgrwt>
</event>
<event>
 6      1 +2.5168241e+02 2.12335600e+02 7.54677100e-03 1.12989000e-01
       21 -1    0    0  503  502 +0.0000000000e+00 +0.0000000000e+00 +1.3033303901e+02 1.3033303901e+02 0.0000000000e+00 0.0000e+00 -1.0000e+00
       21 -1    0    0  504  503 -0.0000000000e+00 -0.0000000000e+00 -6.9604481193e+02 6.9604481193e+02 0.0000000000e+00 0.0000e+00 -1.0000e+00
        6  1    1    2  501    0 -6.3735276794e+01 +9.9854452045e+01 -3.2230990900e+02 3.8450718399e+02 1.7300000000e+02 0.0000e+00 1.0000e+00
       -6  1    1    2    0  502 -5.6803199685e+01 -1.3272960670e+02 -9.9983887423e+01 2.4651476575e+02 1.7300000000e+02 0.0000e+00 1.0000e+00
       21  1    1    2  504  505 +7.2882160881e+01 +3.3594895677e+01 -1.1376556846e+02 1.3922295413e+02 0.0000000000e+00 0.0000e+00 -1.0000e+00
       21  1    1    2  505  501 +4.7656315597e+01 -7.1974102350e-01 -2.9652408049e+01 5.6132947068e+01 0.0000000000e+00 0.0000e+00 -1.0000e+00
<mgrwt>
<rscale>  4 0.21233563E+03</rscale>
<asrwt>0</asrwt>
<pdfrwt beam="1">  1       21 0.20051237E-01 0.21233563E+03</pdfrwt>
<pdfrwt beam="2">  1       21 0.10708381E+00 0.21233563E+03</pdfrwt>
<totfact> 0.15807640E+04</totfact>
</mgrwt>
</event>
<event>
 6      1 +2.5168241e+02 1.75065800e+02 7.54677100e-03 1.11471900e-01
       21 -1    0    0  503  502 +0.0000000000e+00 +0.0000000000e+00 +5.3575843511e+02 5.3575843511e+02 0.0000000000e+00 0.0000e+00 -1.0000e+00
       21 -1    0    0  501  503 -0.0000000000e+00 -0.0000000000e+00 -1.9565660979e+02 1.9565660979e+02 0.0000000000e+00 0.0000e+00 -1.0000e+00
        6  1    1    2  501    0 +4.2981551692e+01 +9.2842302651e+00 -3.9837321051e+01 1.8289238056e+02 1.7300000000e+02 0.0000e+00 -1.0000e+00
       -6  1    1    2    0  504 +1.4491490399e+01 -3.2001090504e+01 +2.5148475212e+01 1.7831298016e+02 1.7300000000e+02 0.0000e+00 1.0000e+00
       21  1    1    2  504  505 -3.6941200973e+01 +2.2743432326e+01 +5.6597712072e+01 7.1310707857e+01 0.0000000000e+00 0.0000e+00 -1.0000e+00
       21  1    1    2  505  502 -2.0531841118e+01 -2.6572087924e-02 +2.9819295908e+02 2.9889897633e+02 0.0000000000e+00 0.0000e+00 -1.0000e+00
<mgrwt>
<rscale>  4 0.17506579E+03</rscale>
<asrwt>0</asrwt>
<pdfrwt beam="1">  1       21 0.82424374E-01 0.17506579E+03</pdfrwt>
<pdfrwt beam="2">  1       21 0.30101017E-01 0.17506579E+03</pdfrwt>
<totfact> 0.13767559E+04</totfact>
</mgrwt>
</event>
<event>
 6      1 +2.5168241e+02 1.97085800e+02 7.54677100e-03 1.16820100e-01
       21 -1    0    0  505  502 +0.0000000000e+00 +0.0000000000e+00 +1.8963010947e+02 1.8963010947e+02 0.0000000000e+00 0.0000e+00 1.0000e+00
       21 -1    0    0  501  503 -0.0000000000e+00 -0.0000000000e+00 -2.2115652397e+03 2.2115652397e+03 0.0000000000e+00 0.0000e+00 1.0000e+00
        6  1    1    2  501    0 -1.1350638470e+02 -1.0834700480e+01 -5.8737749164e+02 6.2285022902e+02 1.7300000000e+02 0.0000e+00 -1.0000e+00
       -6  1    1    2    0  502 +8.1457416194e+01 +1.0110610151e+01 -1.7634412536e+02 2.6031478183e+02 1.7300000000e+02 0.0000e+00 -1.0000e+00
       21  1    1    2  504  503 +2.2345177427e+01 +2.3820647339e+01 -1.3867200484e+03 1.3871046186e+03 0.0000000000e+00 0.0000e+00 1.0000e+00
       21  1    1    2  505  504 +9.7037910836e+00 -2.3096557010e+01 +1.2850653519e+02 1.3092571975e+02 0.0000000000e+00 0.0000e+00 1.0000e+00
<mgrwt>
<rscale>  4 0.19708584E+03</rscale>
<asrwt>0</asrwt>
<pdfrwt beam="1">  1       21 0.29173865E-01 0.19708584E+03</pdfrwt>
<pdfrwt beam="2">  1       21 0.34024079E+00 0.19708584E+03</pdfrwt>
<totfact> 0.22293887E+02</totfact>
</mgrwt>
</event>
<event>
 6      1 +2.5168241e+02 3.20544900e+02 7.54677100e-03 1.07064900e-01
       21 -1    0    0  505  502 +0.0000000000e+00 +0.0000000000e+00 +2.8467308523e+02 2.8467308523e+02 0.0000000000e+00 0.0000e+00 1.0000e+00
       21 -1    0    0  504  503 -0.0000000000e+00 -0.0000000000e+00 -1.1900421102e+03 1.1900421102e+03 0.0000000000e+00 0.0000e+00 -1.0000e+00
        6  1    1    2  501    0 +2.7441816263e+02 +1.8494630828e+02 -3.2118603824e+02 4.9254434936e+02 1.7300000000e+02 0.0000e+00 -1.0000e+00
       -6  1    1    2    0  503 -1.8986405887e+02 -1.5958051444e+02 -6.9989501861e+02 7.6242792349e+02 1.7300000000e+02 0.0000e+00 -1.0000e+00
       21  1    1    2  504  502 -1.0593742610e+02 -7.6969983117e+01 +8.1690831579e+01 1.5433894037e+02 0.0000000000e+00 0.0000e+00 1.0000e+00
       21  1    1    2  505  501 +2.1383322346e+01 +5.1604189278e+01 +3.4021200264e+01 6.5403982241e+01 0.0000000000e+00 0.0000e+00 1.0000e+00
<mgrwt>
<rscale>  4 0.32054494E+03</rscale>
<asrwt>0</asrwt>
<pdfrwt beam="1">  1       21 0.43795859E-01 0.32054494E+03</pdfrwt>
<pdfrwt beam="2">  1       21 0.18308340E+00 0.32054494E+03</pdfrwt>
<totfact> 0.77754999E+02</totfact>
</mgrwt>
</event>
<event>
 6      1 +2.5168241e+02 2.75980200e+02 7.54677100e-03 1.17132900e-01
       21 -1    0    0  503  502 +0.0000000000e+00 +0.0000000000e+00 +7.1301138071e+02 7.1301138071e+02 0.0000000000e+00 0.0000e+00 1.0000e+00
       21 -1    0    0  504  503 -0.0000000000e+00 -0.0000000000e+00 -3.2942943931e+02 3.2942943931e+02 0.0000000000e+00 0.0000e+00 1.0000e+00
        6  1    1    2  501    0 +8.4581338670e+01 +2.1617612970e+02 -1.4770889665e+02 3.2501236908e+02 1.7300000000e+02 0.0000e+00 1.0000e+00
       -6  1    1    2    0  505 -1.1395951969e+02 -1.9136313439e+02 +2.2907080769e+02 3.6333050555e+02 1.7300000000e+02 0.0000e+00 1.0000e+00
       21  1    1    2  504  501 +1.0521516886e+01 -3.3798997609e+01 -1.3353598221e+01 3.7833756653e+01 0.0000000000e+00 0.0000e+00 1.0000e+00
       21  1    1    2  505  502 +1.8856664135e+01 +8.9860022902e+00 +3.1557362858e+02 3.1626418873e+02 0.0000000000e+00 0.0000e+00 1.0000e+00
<mgrwt>
<rscale>  4 0.27598017E+03</rscale>
<asrwt>0</asrwt>
<pdfrwt beam="1">  1       21 0.10969406E+00 0.27598017E+03</pdfrwt>
<pdfrwt beam="2">  1       21 0.50681452E-01 0.27598017E+03</pdfrwt>
<totfact> 0.22855943E+03</totfact>
</mgrwt>
</event>
<event>
 6      1 +2.5168241e+02 1.91580400e+02 7.54677100e-03 1.04003000e-01
       21 -1    0    0  504  502 +0.0000000000e+00 +0.0000000000e+00 +1.8353457621e+02 1.8353457621e+02 0.0000000000e+00 0.0000e+00 -1.0000e+00
       21 -1    0    0  505  503 -0.0000000000e+00 -0.0000000000e+00 -3.9542913749e+02 3.9542913749e+02 0.0000000000e+00 0.0000e+00 1.0000e+00
        6  1    1    2  501    0 +5.9825352981e+01 -3.1814801229e+01 -1.2360143070e+02 2.2315368719e+02 1.7300000000e+02 0.0000e+00 1.0000e+00
       -6  1    1    2    0  503 -3.9938939763e+01 +8.4493642829e+01 +4.6598722976e+01 2.0207606382e+02 1.7300000000e+02 0.0000e+00 -1.0000e+00
       21  1    1    2  504  501 -9.7020394681e+00 -3.0554574208e+01 -1.2207001716e+02 1.2620935252e+02 0.0000000000e+00 0.0000e+00 1.0000e+00
       21  1    1    2  505  502 -1.0184373750e+01 -2.2124267393e+01 -1.2821836399e+01 2.7524610170e+01 0.0000000000e+00 0.0000e+00 -1.0000e+00
<mgrwt>
<rscale>  4 0.19158043E+03</rscale>
<asrwt>0</asrwt>
<pdfrwt beam="1">  1       21 0.28236088E-01 0.19158043E+03</pdfrwt>
<pdfrwt beam="2">  1       21 0.60835253E-01 0.19158043E+03</pdfrwt>
<totfact> 0.30170483E+04</totfact>
</mgrwt>
</event>
<event>
 6      1 +2.5168241e+02 2.00264200e+02 7.54677100e-03 1.04003000e-01
       21 -1    0    0  504  502 +0.0000000000e+00 +0.0000000000e+00 +5.5162515883e+02 5.5162515883e+02 0.0000000000e+00 0.0000e+00 -1.0000e+00
       21 -1    0    0  505  503 -0.0000000000e+00 -0.0000000000e+00 -1.3995468367e+02 1.3995468367e+02 0.0000000000e+00 0.0000e+00 -1.0000e+00
        6  1    1    2  501    0 -6.0304117348e+00 -1.3352012877e+02 +2.1574333503e+02 3.0714520551e+02 1.7300000000e+02 0.0000e+00 -1.0000e+00
       -6  1    1    2    0  503 -7.7894171837e+00 +7.0491167668e+01 +1.9793790981e+02 2.7228311714e+02 1.7300000000e+02 0.0000e+00 -1.0000e+00
       21  1    1    2  504  501 +1.2782374345e+01 +2.7372071903e+01 -4.6299458183e+01 5.5283444558e+01 0.0000000000e+00 0.0000e+00 -1.0000e+00
       21  1    1    2  505  502 +1.0374545730e+00 +3.5656889202e+01 +4.4288688486e+01 5.6868075291e+01 0.0000000000e+00 0.0000e+00 -1.0000e+00
<mgrwt>
<rscale>  4 0.20026424E+03</rscale>
<asrwt>0</asrwt>
<pdfrwt beam="1">  1       21 0.84865408E-01 0.20026424E+03</pdfrwt>
<pdfrwt beam="2">  1       21 0.21531490E-01 0.20026424E+03</pdfrwt>
<totfact> 0.24065843E+04</totfact>
</mgrwt>
</event>
<event>
 6      1 +2.5168241e+02 2.85833200e+02 7.54677100e-03 1.17132900e-01
       21 -1    0    0  505  502 +0.0000000000e+00 +0.0000000000e+00 +2.7670814014e+02 2.7670814014e+02 0.0000000000e+00 0.0000e+00 1.0000e+00
       21 -1    0    0  504  503 -0.0000000000e+00 -0.0000000000e+00 -9.0371498424e+02 9.0371498424e+02 0.0000000000e+00 0.0000e+00 1.0000e+00
        6  1    1    2  501    0 +2.0293568835e+02 -1.2351243463e+02 -2.7906365766e+02 4.0526995959e+02 1.7300000000e+02 0.0000e+00 1.0000e+00
       -6  1    1    2    0  502 +3.1023812322e+01 -6.1475220932e+01 -1.7576938929e+01 1.8702841629e+02 1.7300000000e+02 0.0000e+00 -1.0000e+00
       21  1    1    2  504  501 -3.9854162420e+01 +1.6262317035e+01 -3.2811660092e+02 3.3092796953e+02 0.0000000000e+00 0.0000e+00 1.0000e+00
       21  1    1    2  505  503 -1.9410533826e+02 +1.6872533853e+02 -2.2496465801e+00 2.5719677897e+02 0.0000000000e+00 0.0000e+00 1.0000e+00
<mgrwt>
<rscale>  4 0.25610130E+03</rscale>
<asrwt>0</asrwt>
<pdfrwt beam="1">  1       21 0.42570483E-01 0.28583322E+03</pdfrwt>
<pdfrwt beam="2">  1       21 0.13903308E+00 0.28583322E+03</pdfrwt>
<totfact> 0.17958928E+03</totfact>
</mgrwt>
</event>
<event>
 6      1 +2.5168241e+02 3.00453000e+02 7.54677100e-03 1.16820100e-01
       21 -1    0    0  505  502 +0.0000000000e+00 +0.0000000000e+00 +5.2862548599e+02 5.2862548599e+02 0.0000000000e+00 0.0000e+00 -1.0000e+00
       21 -1    0    0  504  503 -0.0000000000e+00 -0.0000000000e+00 -6.2907117868e+02 6.2907117868e+02 0.0000000000e+00 0.0000e+00 1.0000e+00
        6  1    1    2  501    0 +1.9929875051e+02 -3.3888149102e+01 +2.1764043779e+02 3.4375101275e+02 1.7300000000e+02 0.0000e+00 -1.0000e+00
       -6  1    1    2    0  503 -2.3854993058e+02 +4.2844582741e+01 -3.5826530762e+02 4.6585916143e+02 1.7300000000e+02 0.0000e+00 1.0000e+00
       21  1    1    2  504  502 -7.9019059836e+00 +3.4378276963e+01 -1.4652133395e+02 1.5070768842e+02 0.0000000000e+00 0.0000e+00 1.0000e+00
       21  1    1    2  505  501 +4.7153086049e+01 -4.3334710602e+01 +1.8670051108e+02 1.9737880207e+02 0.0000000000e+00 0.0000e+00 1.0000e+00
<mgrwt>
<rscale>  4 0.30045299E+03</rscale>
<asrwt>0</asrwt>
<pdfrwt beam="1">  1       21 0.81326998E-01 0.30045299E+03</pdfrwt>
<pdfrwt beam="2">  1       21 0.96780181E-01 0.30045299E+03</pdfrwt>
<totfact> 0.10782601E+03</totfact>
</mgrwt>
</event>
<event>
 6      1 +2.5168241e+02 1.75311100e+02 7.54677100e-03 1.11910500e-01
       21 -1    0    0  501  502 +0.0000000000e+00 +0.0000000000e+00 +7.0425675525e+02 7.0425675525e+02 0.0000000000e+00 0.0000e+00 1.0000e+00
       21 -1    0    0  505  503 -0.0000000000e+00 -0.0000000000e+00 -2.0650187866e+02 2.0650187866e+02 0.0000000000e+00 0.0000e+00 1.0000e+00
        6  1    1    2  501    0 -5.8494123258e+01 -4.5979897651e+00 +3.7911427481e+02 4.2083172092e+02 1.7300000000e+02 0.0000e+00 1.0000e+00
       -6  1    1    2    0  504 -1.8253413714e+01 -7.7721656836e+00 +2.0251444846e+02 2.6708555840e+02 1.7300000000e+02 0.0000e+00 1.0000e+00
       21  1    1    2  504  503 -5.8767600498e+01 -1.1153778665e+01 -5.7146123756e+01 8.2726761735e+01 0.0000000000e+00 0.0000e+00 1.0000e+00
       21  1    1    2  505  502 +1.3551513747e+02 +2.3523934114e+01 -2.6727722915e+01 1.4011459286e+02 0.0000000000e+00 0.0000e+00 1.0000e+00
<mgrwt>
<rscale>  4 0.17531114E+03</rscale>
<asrwt>0</asrwt>
<pdfrwt beam="1">  1       21 0.10834719E+00 0.17531114E+03</pdfrwt>
<pdfrwt beam="2">  1       21 0.31769520E-01 0.17531114E+03</pdfrwt>
<totfact> 0.65420946E+03</totfact>
</mgrwt>
</event>
<event>
 6      1 +2.5168241e+02 1.77938100e+02 7.54677100e-03 1.17132900e-01
       21 -1    0    0  503  502 +0.0000000000e+00 +0.0000000000e+00 +3.5678659075e+01 3.5678659075e+01 0.0000000000e+00 0.0000e+00 1.0000e+00
       21 -1    0    0  504  503 -0.0000000000e+00 -0.0000000000e+00 -1.8477299957e+03 1.8477299957e+03 0.0000000000e+00 0.0000e+00 1.0000e+00
        6  1    1    2  501    0 +5.1057814355e+01 +5.8749024390e+00 -8.6244603200e+02 8.8112630934e+02 1.7300000000e+02 0.0000e+00 -1.0000e+00
       -6  1    1    2    0  505 -3.0765575104e+01 +1.7802417915e+01 -7.7018053630e+02 7.9017118727e+02 1.7300000000e+02 0.0000e+00 1.0000e+00
       21  1    1    2  504  501 -1.6391289343e+01 -4.9920335641e+01 -1.7794326959e+02 1.8553846359e+02 0.0000000000e+00 0.0000e+00 -1.0000e+00
       21  1    1    2  505  502 -3.9009499088e+00 +2.6243015287e+01 -1.4814987808e+00 2.6572694635e+01 0.0000000000e+00 0.0000e+00 1.0000e+00
<mgrwt>
<rscale>  4 0.17793808E+03</rscale>
<asrwt>0</asrwt>
<pdfrwt beam="1">  1       21 0.54890250E-02 0.17793808E+03</pdfrwt>
<pdfrwt beam="2">  1       21 0.28426613E+00 0.17793808E+03</pdfrwt>
<totfact> 0.98072388E+03</totfact>
</mgrwt>
</event>
<event>
 6      1 +2.5168241e+02 3.57265600e+02 7.54677100e-03 1.17132900e-01
       21 -1    0    0  503  502 +0.0000000000e+00 +0.0000000000e+00 +1.4997895265e+03 1.4997895265e+03 0.0000000000e+00 0.0000e+00 -1.0000e+00
       21 -1    0    0  504  503 -0.0000000000e+00 -0.0000000000e+00 -3.9190385109e+02 3.9190385109e+02 0.0000000000e+00 0.0000e+00 1.0000e+00
        6  1    1    2  501    0 -2.0886530389e+02 +9.8039021651e+00 +8.5677687210e+01 2.8458829518e+02 1.7300000000e+02 0.0000e+00 1.0000e+00
       -6  1    1    2    0  505 -1.3556979982e+02 -2.1982985382e+02 -1.5602762103e+01 3.1125035171e+02 1.7300000000e+02 0.0000e+00 1.0000e+00
       21  1    1    2  504  501 +6.8765856631e+00 +1.6296453533e+02 -3.7889509223e+01 1.6745250705e+02 0.0000000000e+00 0.0000e+00 1.0000e+00
       21  1    1    2  505  502 +3.3755851804e+02 +4.7061416324e+01 +1.0757002596e+03 1.1284022237e+03 0.0000000000e+00 0.0000e+00 -1.0000e+00
<mgrwt>
<rscale>  4 0.32746634E+03</rscale>
<asrwt>0</asrwt>
<pdfrwt beam="1">  1       21 0.23073685E+00 0.35726558E+03</pdfrwt>
<pdfrwt beam="2">  1       21 0.60292901E-01 0.35726558E+03</pdfrwt>
<totfact> 0.18824947E+02</totfact>
</mgrwt>
</event>
<event>
 6      1 +2.5168241e+02 2.47335300e+02 7.54677100e-03 1.16820100e-01
       21 -1    0    0  505  502 +0.0000000000e+00 +0.0000000000e+00 +2.8172677231e+02 2.8172677231e+02 0.0000000000e+00 0.0000e+00 1.0000e+00
       21 -1    0    0  501  503 -0.0000000000e+00 -0.0000000000e+00 -1.3649487509e+03 1.3649487509e+03 0.0000000000e+00 0.0000e+00 1.0000e+00
        6  1    1    2  501    0 -1.8428090893e+02 -8.3950990013e+01 -3.6387634721e+02 4.5093482697e+02 1.7300000000e+02 0.0000e+00 1.0000e+00
       -6  1    1    2    0  502 +1.3714356797e+02 -1.0264320288e+02 +1.3752694274e+02 2.7961874993e+02 1.7300000000e+02 0.0000e+00 1.0000e+00
       21  1    1    2  504  503 +2.6843943574e+01 +2.0174943469e+02 -8.6569751265e+02 8.8930063258e+02 0.0000000000e+00 0.0000e+00 1.0000e+00
       21  1    1    2  505  504 +2.0293397387e+01 -1.5155241794e+01 +8.8249384960e+00 2.6821313741e+01 0.0000000000e+00 0.0000e+00 1.0000e+00
<mgrwt>
<rscale>  4 0.24733530E+03</rscale>
<asrwt>0</asrwt>
<pdfrwt beam="1">  1       21 0.43342581E-01 0.24733530E+03</pdfrwt>
<pdfrwt beam="2">  1       21 0.20999211E+00 0.24733530E+03</pdfrwt>
<totfact> 0.55958496E+02</totfact>
</mgrwt>
</event>
<event>
 6      1 +2.5168241e+02 2.01940000e+02 7.54677100e-03 1.05831300e-01
       21 -1    0    0  504  502 +0.0000000000e+00 +0.0000000000e+00 +3.8664889681e+02 3.8664889681e+02 0.0000000000e+00 0.0000e+00 1.0000e+00
       21 -1    0    0  501  503 -0.0000000000e+00 -0.0000000000e+00 -1.8551186658e+02 1.8551186658e+02 0.0000000000e+00 0.0000e+00 1.0000e+00
        6  1    1    2  501    0 -4.1464001331e+00 +1.0302449167e+02 +1.1899453487e+02 2.3392293143e+02 1.7300000000e+02 0.0000e+00 1.0000e+00
       -6  1    1    2    0  505 -3.8774167324e+01 -1.0059198471e+02 -1.1897201109e+01 2.0418796937e+02 1.7300000000e+02 0.0000e+00 1.0000e+00
       21  1    1    2  504  503 +3.4905596353e+01 +3.5038144190e+01 +2.5787528505e+01 5.5776956097e+01 0.0000000000e+00 0.0000e+00 1.0000e+00
       21  1    1    2  505  502 +8.0149711038e+00 -3.7470651147e+01 +6.8252167970e+01 7.8272906499e+01 0.0000000000e+00 0.0000e+00 1.0000e+00
<mgrwt>
<rscale>  4 0.20194000E+03</rscale>
<asrwt>0</asrwt>
<pdfrwt beam="1">  1       21 0.59484445E-01 0.20194000E+03</pdfrwt>
<pdfrwt beam="2">  1       21 0.28540287E-01 0.20194000E+03</pdfrwt>
<totfact> 0.30833872E+04</totfact>
</mgrwt>
</event>
<event>
 6      1 +2.5168241e+02 2.71890100e+02 7.54677100e-03 1.11471900e-01
       21 -1    0    0  503  502 +0.0000000000e+00 +0.0000000000e+00 +1.1739633625e+03 1.1739633625e+03 0.0000000000e+00 0.0000e+00 -1.0000e+00
       21 -1    0    0  501  503 -0.0000000000e+00 -0.0000000000e+00 -3.0097859773e+02 3.0097859773e+02 0.0000000000e+00 0.0000e+00 1.0000e+00
        6  1    1    2  501    0 -2.1785321256e+02 -9.8992606206e+01 +3.0595135656e+02 4.2519970706e+02 1.7300000000e+02 0.0000e+00 -1.0000e+00
       -6  1    1    2    0  504 +1.9288294121e+02 +2.5976593584e+01 -1.2226772967e+02 2.8767518166e+02 1.7300000000e+02 0.0000e+00 1.0000e+00
       21  1    1    2  504  505 +1.8403208358e+01 -3.1116439515e+01 -2.2551417062e+01 4.2608418153e+01 0.0000000000e+00 0.0000e+00 1.0000e+00
       21  1    1    2  505  502 +6.5670629902e+00 +1.0413245214e+02 +7.1185255497e+02 7.1945865337e+02 0.0000000000e+00 0.0000e+00 -1.0000e+00
<mgrwt>
<rscale>  4 0.27189012E+03</rscale>
<asrwt>0</asrwt>
<pdfrwt beam="1">  1       21 0.18060975E+00 0.27189012E+03</pdfrwt>
<pdfrwt beam="2">  1       21 0.46304400E-01 0.27189012E+03</pdfrwt>
<totfact> 0.74644782E+02</totfact>
</mgrwt>
</event>
<event>
 6      1 +2.5168241e+02 2.33738300e+02 7.54677100e-03 9.87464100e-02
       21 -1    0    0  503  502 +0.0000000000e+00 +0.0000000000e+00 +3.6444627101e+02 3.6444627101e+02 0.0000000000e+00 0.0000e+00 1.0000e+00
       21 -1    0    0  505  503 -0.0000000000e+00 -0.0000000000e+00 -2.5704502916e+02 2.5704502916e+02 0.0000000000e+00 0.0000e+00 -1.0000e+00
        6  1    1    2  501    0 +1.8333930740e+00 -1.6048366109e+02 +9.7466814870e+01 2.5531773696e+02 1.7300000000e+02 0.0000e+00 1.0000e+00
       -6  1    1    2    0  504 -1.5033144267e+01 +1.5334329779e+02 +8.5365360903e+01 2.4689351398e+02 1.7300000000e+02 0.0000e+00 -1.0000e+00
       21  1    1    2  504  502 +3.7184689421e+01 +1.0091738969e+01 +1.5843864869e+00 3.8562346963e+01 0.0000000000e+00 0.0000e+00 1.0000e+00
       21  1    1    2  505  501 -2.3984938228e+01 -2.9513756699e+00 -7.7015320410e+01 8.0717702259e+01 0.0000000000e+00 0.0000e+00 1.0000e+00
<mgrwt>
<rscale>  4 0.23373829E+03</rscale>
<asrwt>0</asrwt>
<pdfrwt beam="1">  1       21 0.56068657E-01 0.23373829E+03</pdfrwt>
<pdfrwt beam="2">  1       21 0.39545389E-01 0.23373829E+03</pdfrwt>
<totfact> 0.18025682E+04</totfact>
</mgrwt>
</event>
<event>
 6      1 +2.5168241e+02 1.84606700e+02 7.54677100e-03 1.07064900e-01
       21 -1    0    0  501  502 +0.0000000000e+00 +0.0000000000e+00 +1.1485513420e+03 1.1485513420e+03 0.0000000000e+00 0.0000e+00 1.0000e+00
       21 -1    0    0  505  503 -0.0000000000e+00 -0.0000000000e+00 -5.4695137222e+01 5.4695137222e+01 0.0000000000e+00 0.0000e+00 1.0000e+00
        6  1    1    2  501    0 -8.9616182464e+00 +4.4133889533e+01 +6.9119294623e+02 7.1393613141e+02 1.7300000000e+02 0.0000e+00 1.0000e+00
       -6  1    1    2    0  504 +5.0716843389e+01 -5.1795886585e+01 +1.8263498057e+02 2.6180058861e+02 1.7300000000e+02 0.0000e+00 1.0000e+00
       21  1    1    2  504  503 -1.3221366754e+01 +2.1960469614e+01 +8.6354887453e+01 9.0079039468e+01 0.0000000000e+00 0.0000e+00 1.0000e+00
       21  1    1    2  505  502 -2.8533858389e+01 -1.4298472563e+01 +1.3367339053e+02 1.3743071974e+02 0.0000000000e+00 0.0000e+00 1.0000e+00
<mgrwt>
<rscale>  4 0.18460666E+03</rscale>
<asrwt>0</asrwt>
<pdfrwt beam="1">  1       21 0.17670019E+00 0.18460666E+03</pdfrwt>
<pdfrwt beam="2">  1       21 0.84146373E-02 0.18460666E+03</pdfrwt>
<totfact> 0.21182375E+04</totfact>
</mgrwt>
</event>
<event>
 6      1 +2.5168241e+02 1.89832500e+02 7.54677100e-03 1.17132900e-01
       21 -1    0    0  503  502 +0.0000000000e+00 +0.0000000000e+00 +6.8054395847e+02 6.8054395847e+02 0.0000000000e+00 0.0000e+00 1.0000e+00
       21 -1    0    0  504  503 -0.0000000000e+00 -0.0000000000e+00 -8.1137475157e+02 8.1137475157e+02 0.0000000000e+00 0.0000e+00 1.0000e+00
        6  1    1    2  501    0 -7.1009272646e+01 +1.0419996909e+01 +4.8283297249e+02 5.1788760601e+02 1.7300000000e+02 0.0000e+00 1.0000e+00
       -6  1    1    2    0  505 +9.4647903570e+01 -9.5327368692e+01 +2.4364342061e+01 2.2038183690e+02 1.7300000000e+02 0.0000e+00 1.0000e+00
       21  1    1    2  504  501 +7.7414533269e+00 +2.8454620858e+01 -6.7737718553e+02 6.7801876598e+02 0.0000000000e+00 0.0000e+00 1.0000e+00
       21  1    1    2  505  502 -3.1380084251e+01 +5.6452750926e+01 +3.9349077874e+01 7.5630501150e+01 0.0000000000e+00 0.0000e+00 1.0000e+00
<mgrwt>
<rscale>  4 0.18983254E+03</rscale>
<asrwt>0</asrwt>
<pdfrwt beam="1">  1       21 0.10469907E+00 0.18983254E+03</pdfrwt>
<pdfrwt beam="2">  1       21 0.12482688E+00 0.18983254E+03</pdfrwt>
<totfact> 0.35334258E+02</totfact>
</mgrwt>
</event>
<event>
 6      1 +2.5168241e+02 2.24085400e+02 7.54677100e-03 1.11910500e-01
       21 -1    0    0  501  502 +0.0000000000e+00 +0.0000000000e+00 +3.2061221265e+02 3.2061221265e+02 0.0000000000e+00 0.0000e+00 -1.0000e+00
       21 -1    0    0  505  503 -0.0000000000e+00 -0.0000000000e+00 -6.7239868726e+02 6.7239868726e+02 0.0000000000e+00 0.0000e+00 -1.0000e+00
        6  1    1    2  501    0 +7.6761906894e+01 +9.7915967229e+01 -2.7843751501e+02 3.5062284117e+02 1.7300000000e+02 0.0000e+00 -1.0000e+00
       -6  1    1    2    0  504 -5.6236203168e-01 -1.4884701567e+02 +2.1863784027e+02 3.1604945107e+02 1.7300000000e+02 0.0000e+00 -1.0000e+00
       21  1    1    2  504  503 +1.4409690701e+01 +5.0351801533e+01 -1.3889687816e+02 1.4844287072e+02 0.0000000000e+00 0.0000e+00 -1.0000e+00
       21  1    1    2  505  502 -9.0609235564e+01 +5.7924691159e-01 -1.5308992170e+02 1.7789573695e+02 0.0000000000e+00 0.0000e+00 1.0000e+00
<mgrwt>
<rscale>  4 0.22408535E+03</rscale>
<asrwt>0</asrwt>
<pdfrwt beam="1">  1       21 0.49324956E-01 0.22408535E+03</pdfrwt>
<pdfrwt beam="2">  1       21 0.10344595E+00 0.22408535E+03</pdfrwt>
<totfact> 0.28921995E+03</totfact>
</mgrwt>
</event>
<event>
 6      1 +2.5168241e+02 1.74177400e+02 7.54677100e-03 1.11671100e-01
       21 -1    0    0  503  502 +0.0000000000e+00 +0.0000000000e+00 +9.5698918140e+02 9.5698918140e+02 0.0000000000e+00 0.0000e+00 -1.0000e+00
       21 -1    0    0  501  503 -0.0000000000e+00 -0.0000000000e+00 -5.2704848720e+01 5.2704848720e+01 0.0000000000e+00 0.0000e+00 -1.0000e+00
        6  1    1    2  501    0 +2.6353656178e+01 -2.7630345544e+01 +2.7789273051e+02 3.2956231711e+02 1.7300000000e+02 0.0000e+00 -1.0000e+00
       -6  1    1    2    0  504 +5.1536096353e+00 +3.2632456096e+00 +3.6724498743e+02 4.0599887839e+02 1.7300000000e+02 0.0000e+00 -1.0000e+00
       21  1    1    2  504  505 -5.0262616155e+01 +1.7745400737e+00 +2.1709229088e+02 2.2284196718e+02 0.0000000000e+00 0.0000e+00 1.0000e+00
       21  1    1    2  505  502 +1.8755350342e+01 +2.2592559860e+01 +4.2054323863e+01 5.1290867443e+01 0.0000000000e+00 0.0000e+00 -1.0000e+00
<mgrwt>
<rscale>  4 0.17417739E+03</rscale>
<asrwt>0</asrwt>
<pdfrwt beam="1">  1       21 0.14722909E+00 0.17417739E+03</pdfrwt>
<pdfrwt beam="2">  1       21 0.81084389E-02 0.17417739E+03</pdfrwt>
<totfact> 0.37207050E+04</totfact>
</mgrwt>
</event>
<event>
 6      1 +2.5168241e+02 2.36016800e+02 7.54677100e-03 1.09842800e-01
       21 -1    0    0  501  502 +0.0000000000e+00 +0.0000000000e+00 +8.0892911728e+02 8.0892911728e+02 0.0000000000e+00 0.0000e+00 -1.0000e+00
       21 -1    0    0  505  503 -0.0000000000e+00 -0.0000000000e+00 -3.3915636770e+02 3.3915636770e+02 0.0000000000e+00 0.0000e+00 1.0000e+00
        6  1    1    2  501    0 +8.2226175521e+01 -2.0639461776e+02 -1.3817338871e+02 3.1365708589e+02 1.7300000000e+02 0.0000e+00 1.0000e+00
       -6  1    1    2    0  504 -4.6422390868e+01 +8.7238746584e+01 +2.7662059789e+01 2.0114628217e+02 1.7300000000e+02 0.0000e+00 1.0000e+00
       21  1    1    2  504  503 +2.2936446867e+01 +4.5524859931e+01 +6.0038401604e+00 5.1328740129e+01 0.0000000000e+00 0.0000e+00 1.0000e+00
       21  1    1    2  505  502 -5.8740231520e+01 +7.3631011245e+01 +5.7428023833e+02 5.8195337679e+02 0.0000000000e+00 0.0000e+00 -1.0000e+00
<mgrwt>
<rscale>  4 0.23601677E+03</rscale>
<asrwt>0</asrwt>
<pdfrwt beam="1">  1       21 0.12445063E+00 0.23601677E+03</pdfrwt>
<pdfrwt beam="2">  1       21 0.52177903E-01 0.23601677E+03</pdfrwt>
<totfact> 0.16177008E+03</totfact>
</mgrwt>
</event>
<event>
 6      1 +2.5168241e+02 1.78619100e+02 7.54677100e-03 1.12068800e-01
       21 -1    0    0  504  502 +0.0000000000e+00 +0.0000000000e+00 +1.4676766349e+02 1.4676766349e+02 0.0000000000e+00 0.0000e+00 -1.0000e+00
       21 -1    0    0  502  503 -0.0000000000e+00 -0.0000000000e+00 -8.7303030224e+02 8.7303030224e+02 0.0000000000e+00 0.0000e+00 -1.0000e+00
        6  1    1    2  501    0 +3.8799515336e+01 +4.5799358922e+01 +2.6475511911e+01 1.8502144848e+02 1.7300000000e+02 0.0000e+00 -1.0000e+00
       -6  1    1    2    0  505 -2.1740408334e+01 +1.4782010095e+01 -1.6288634224e+02 2.3906508249e+02 1.7300000000e+02 0.0000e+00 1.0000e+00
       21  1    1    2  504  501 -1.7596681960e+00 -4.1145106398e+01 -5.1965041858e+02 5.2127974615e+02 0.0000000000e+00 0.0000e+00 -1.0000e+00
       21  1    1    2  505  503 -1.5299438805e+01 -1.9436262620e+01 -7.0201389844e+01 7.4431688604e+01 0.0000000000e+00 0.0000e+00 -1.0000e+00
<mgrwt>
<rscale>  4 0.17861915E+03</rscale>
<asrwt>0</asrwt>
<pdfrwt beam="1">  1       21 0.22579640E-01 0.17861915E+03</pdfrwt>
<pdfrwt beam="2">  1       21 0.13431236E+00 0.17861915E+03</pdfrwt>
<totfact> 0.73955420E+03</totfact>
</mgrwt>
</event>
<event>
 6      1 +2.5168241e+02 1.97637800e+02 7.54677100e-03 1.06249800e-01
       21 -1    0    0  503  502 +0.0000000000e+00 +0.0000000000e+00 +8.2234860697e+01 8.2234860697e+01 0.0000000000e+00 0.0000e+00 1.0000e+00
       21 -1    0    0  504  503 -0.0000000000e+00 -0.0000000000e+00 -1.2406592701e+03 1.2406592701e+03 0.0000000000e+00 0.0000e+00 1.0000e+00
        6  1    1    2  501    0 +7.4784089256e+00 +6.8332742779e+01 -6.0336361054e+02 6.3142848911e+02 1.7300000000e+02 0.0000e+00 -1.0000e+00
       -6  1    1    2    0  505 +5.9729095319e+01 -1.3944066965e+02 -5.1009745785e+02 5.5958885057e+02 1.7300000000e+02 0.0000e+00 -1.0000e+00
       21  1    1    2  504  501 -6.8794756310e+01 +2.1604044491e+01 -1.3965514424e+01 7.3447183930e+01 0.0000000000e+00 0.0000e+00 1.0000e+00
       21  1    1    2  505  502 +1.5872520648e+00 +4.9503882382e+01 -3.0997826544e+01 5.8429607140e+01 0.0000000000e+00 0.0000e+00 1.0000e+00
<mgrwt>
<rscale>  4 0.19763783E+03</rscale>
<asrwt>0</asrwt>
<pdfrwt beam="1">  1       21 0.12651518E-01 0.19763783E+03</pdfrwt>
<pdfrwt beam="2">  1       21 0.19087064E+00 0.19763783E+03</pdfrwt>
<totfact> 0.81813231E+03</totfact>
</mgrwt>
</event>
<event>
 6      1 +2.5168241e+02 2.68555600e+02 7.54677100e-03 1.11910500e-01
       21 -1    0    0  501  502 +0.0000000000e+00 +0.0000000000e+00 +1.0351781588e+02 1.0351781588e+02 0.0000000000e+00 0.0000e+00 1.0000e+00
       21 -1    0    0  504  503 -0.0000000000e+00 -0.0000000000e+00 -2.6605443318e+03 2.6605443318e+03 0.0000000000e+00 0.0000e+00 -1.0000e+00
        6  1    1    2  501    0 +4.3663429000e+01 +2.0488464669e+02 -1.6175652250e+02 3.1619358951e+02 1.7300000000e+02 0.0000e+00 1.0000e+00
       -6  1    1    2    0  503 +1.2541768584e+02 -2.0389206747e+02 -1.2443751057e+03 1.2789448678e+03 1.7300000000e+02 0.0000e+00 -1.0000e+00
       21  1    1    2  504  505 -1.9896101113e+01 -2.2960258865e+01 -4.9442107467e+02 4.9535363873e+02 0.0000000000e+00 0.0000e+00 1.0000e+00
       21  1    1    2  505  502 -1.4918501373e+02 +2.1967679647e+01 -6.5647381308e+02 6.7357005169e+02 0.0000000000e+00 0.0000e+00 -1.0000e+00
<mgrwt>
<rscale>  4 0.26855560E+03</rscale>
<asrwt>0</asrwt>
<pdfrwt beam="1">  1       21 0.15925820E-01 0.26855560E+03</pdfrwt>
<pdfrwt beam="2">  1       21 0.40931446E+00 0.26855560E+03</pdfrwt>
<totfact> 0.24006762E+02</totfact>
</mgrwt>
</event>
<event>
 6      1 +2.5168241e+02 2.06522400e+02 7.54677100e-03 1.07064900e-01
       21 -1    0    0  505  502 +0.0000000000e+00 +0.0000000000e+00 +7.0908367701e+01 7.0908367701e+01 0.0000000000e+00 0.0000e+00 1.0000e+00
       21 -1    0    0  504  503 -0.0000000000e+00 -0.0000000000e+00 -1.4246902328e+03 1.4246902328e+03 0.0000000000e+00 0.0000e+00 1.0000e+00
        6  1    1    2  501    0 -8.5847495274e+01 -6.7551418837e+01 -3.0416165400e+02 3.6657372846e+02 1.7300000000e+02 0.0000e+00 1.0000e+00
       -6  1    1    2    0  503 +7.4969954677e+01 +8.6441590164e+01 -1.0598195646e+03 1.0799255309e+03 1.7300000000e+02 0.0000e+00 1.0000e+00
       21  1    1    2  504  502 +2.2739960727e+01 -1.3691132183e+00 +1.5162903555e+01 2.7365926425e+01 0.0000000000e+00 0.0000e+00 1.0000e+00
       21  1    1    2  505  501 -1.1862420130e+01 -1.7521058109e+01 -4.9635500257e+00 2.1733414767e+01 0.0000000000e+00 0.0000e+00 -1.0000e+00
<mgrwt>
<rscale>  4 0.20652244E+03</rscale>
<asrwt>0</asrwt>
<pdfrwt beam="1">  1       21 0.10908980E-01 0.20652244E+03</pdfrwt>
<pdfrwt beam="2">  1       21 0.21918311E+00 0.20652244E+03</pdfrwt>
<totfact> 0.69894238E+03</totfact>
</mgrwt>
</event>
<event>
 6      1 +2.5168241e+02 1.93011700e+02 7.54677100e-03 1.16820100e-01
       21 -1    0    0  504  502 +0.0000000000e+00 +0.0000000000e+00 +1.2802359563e+03 1.2802359563e+03 0.0000000000e+00 0.0000e+00 1.0000e+00
       21 -1    0    0  501  503 -0.0000000000e+00 -0.0000000000e+00 -1.1911397181e+03 1.1911397181e+03 0.0000000000e+00 0.0000e+00 1.0000e+00
        6  1    1    2  501    0 -1.6281670548e+00 +7.9338533725e+01 +3.5024237327e+01 1.9352764935e+02 1.7300000000e+02 0.0000e+00 -1.0000e+00
       -6  1    1    2    0  505 +1.5402711131e+01 -4.8289229445e+01 +6.8538238083e+02 7.0869394038e+02 1.7300000000e+02 0.0000e+00 1.0000e+00
       21  1    1    2  504  503 -3.8298691923e+01 +7.3272781328e+00 -1.0987797454e+03 1.0994714220e+03 0.0000000000e+00 0.0000e+00 1.0000e+00
       21  1    1    2  505  502 +2.4524147847e+01 -3.8376582412e+01 +4.6746936547e+02 4.6968266261e+02 0.0000000000e+00 0.0000e+00 1.0000e+00
<mgrwt>
<rscale>  4 0.19301172E+03</rscale>
<asrwt>0</asrwt>
<pdfrwt beam="1">  1       21 0.19695938E+00 0.19301172E+03</pdfrwt>
<pdfrwt beam="2">  1       21 0.18325226E+00 0.19301172E+03</pdfrwt>
<totfact> 0.24281460E+01</totfact>
</mgrwt>
</event>
<event>
 6      1 +2.5168241e+02 2.04778000e+02 7.54677100e-03 1.11671100e-01
       21 -1    0    0  503  502 +0.0000000000e+00 +0.0000000000e+00 +8.6872068446e+02 8.6872068446e+02 0.0000000000e+00 0.0000e+00 1.0000e+00
       21 -1    0    0  501  503 -0.0000000000e+00 -0.0000000000e+00 -1.0032855284e+03 1.0032855284e+03 0.0000000000e+00 0.0000e+00 1.0000e+00
        6  1    1    2  501    0 -4.6907501212e+01 -6.6311706350e+00 +4.9888703247e+02 5.3015239060e+02 1.7300000000e+02 0.0000e+00 1.0000e+00
       -6  1    1    2    0  504 +9.5660039311e+01 -5.6478630762e+01 -9.6755453944e+02 9.8915694692e+02 1.7300000000e+02 0.0000e+00 1.0000e+00
       21  1    1    2  504  505 -2.5820692684e+01 +5.5285763527e+01 +9.8616114415e+01 1.1596707223e+02 0.0000000000e+00 0.0000e+00 -1.0000e+00
       21  1    1    2  505  502 -2.2931845416e+01 +7.8240378700e+00 +2.3548654861e+02 2.3672980311e+02 0.0000000000e+00 0.0000e+00 -1.0000e+00
<mgrwt>
<rscale>  4 0.20477796E+03</rscale>
<asrwt>0</asrwt>
<pdfrwt beam="1">  1       21 0.13364934E+00 0.20477796E+03</pdfrwt>
<pdfrwt beam="2">  1       21 0.15435162E+00 0.20477796E+03</pdfrwt>
<totfact> 0.10987108E+02</totfact>
</mgrwt>
</event>
<event>
 6      1 +2.5168241e+02 2.86783800e+02 7.54677100e-03 1.16820100e-01
       21 -1    0    0  501  502 +0.0000000000e+00 +0.0000000000e+00 +8.3893131630e+02 8.3893131630e+02 0.0000000000e+00 0.0000e+00 -1.0000e+00
       21 -1    0    0  504  503 -0.0000000000e+00 -0.0000000000e+00 -4.8121987182e+02 4.8121987182e+02 0.0000000000e+00 0.0000e+00 -1.0000e+00
        6  1    1    2  501    0 +1.2885439304e+02 +1.5813464868e+02 +5.9216538449e+02 6.4976831587e+02 1.7300000000e+02 0.0000e+00 -1.0000e+00
       -6  1    1    2    0  503 -1.8262358656e+02 -1.8030623259e+02 -2.0998463812e+02 3.7401104278e+02 1.7300000000e+02 0.0000e+00 -1.0000e+00
       21  1    1    2  504  505 +1.8529378063e+01 +2.0903863653e+01 -1.5687926434e+02 1.5934683224e+02 0.0000000000e+00 0.0000e+00 -1.0000e+00
       21  1    1    2  505  502 +3.5239815455e+01 +1.2677202494e+00 +1.3240996245e+02 1.3702499722e+02 0.0000000000e+00 0.0000e+00 -1.0000e+00
<mgrwt>
<rscale>  4 0.28678381E+03</rscale>
<asrwt>0</asrwt>
<pdfrwt beam="1">  1       21 0.12906636E+00 0.28678381E+03</pdfrwt>
<pdfrwt beam="2">  1       21 0.74033827E-01 0.28678381E+03</pdfrwt>
<totfact> 0.66252530E+02</totfact>
</mgrwt>
</event>
<event>
 6      1 +2.5168241e+02 2.19074500e+02 7.54677100e-03 1.07240600e-01
       21 -1    0    0  505  502 +0.0000000000e+00 +0.0000000000e+00 +2.3592369458e+02 2.3592369458e+02 0.0000000000e+00 0.0000e+00 1.0000e+00
       21 -1    0    0  504  503 -0.0000000000e+00 -0.0000000000e+00 -2.5371253481e+03 2.5371253481e+03 0.0000000000e+00 0.0000e+00 1.0000e+00
        6  1    1    2  501    0 -1.3040339075e+02 -1.0889549679e+02 -1.6779473245e+03 1.6953759162e+03 1.7300000000e+02 0.0000e+00 1.0000e+00
       -6  1    1    2    0  502 +1.0237744962e+02 +8.5349197048e+01 +1.7148996987e+02 2.7767505721e+02 1.7300000000e+02 0.0000e+00 1.0000e+00
       21  1    1    2  504  501 +2.1224778391e+01 -2.9261972226e+01 -2.4041364741e+02 2.4311617819e+02 0.0000000000e+00 0.0000e+00 1.0000e+00
       21  1    1    2  505  503 +6.8011627340e+00 +5.2808271963e+01 -5.5433065152e+02 5.5688189108e+02 0.0000000000e+00 0.0000e+00 1.0000e+00
<mgrwt>
<rscale>  4 0.21907454E+03</rscale>
<asrwt>0</asrwt>
<pdfrwt beam="1">  1       21 0.36295955E-01 0.21907454E+03</pdfrwt>
<pdfrwt beam="2">  1       21 0.39032696E+00 0.21907454E+03</pdfrwt>
<totfact> 0.69898910E+01</totfact>
</mgrwt>
</event>
<event>
 6      1 +2.5168241e+02 4.65772400e+02 7.54677100e-03 1.16820100e-01
       21 -1    0    0  504  502 +0.0000000000e+00 +0.0000000000e+00 +8.1534608112e+02 8.1534608112e+02 0.0000000000e+00 0.0000e+00 -1.0000e+00
       21 -1    0    0  501  503 -0.0000000000e+00 -0.0000000000e+00 -4.1797349284e+02 4.1797349284e+02 0.0000000000e+00 0.0000e+00 1.0000e+00
        6  1    1    2  501    0 -5.5428861076e+01 -1.2477479998e+01 -6.3191070682e+01 1.9274376141e+02 1.7300000000e+02 0.0000e+00 1.0000e+00
       -6  1    1    2    0  505 -8.4077588349e+01 -1.1480753183e+02 +2.8549035899e+01 2.2581819607e+02 1.7300000000e+02 0.0000e+00 -1.0000e+00
       21  1    1    2  504  503 -1.0479893843e+02 -3.8513334565e+01 -1.3517384030e+02 1.7532273537e+02 0.0000000000e+00 0.0000e+00 1.0000e+00
       21  1    1    2  505  502 +2.4430538786e+02 +1.6579834639e+02 +5.6718846337e+02 6.3943488111e+02 0.0000000000e+00 0.0000e+00 -1.0000e+00
<mgrwt>
<rscale>  4 0.46577243E+03</rscale>
<asrwt>0</asrwt>
<pdfrwt beam="1">  1       21 0.12543786E+00 0.46577243E+03</pdfrwt>
<pdfrwt beam="2">  1       21 0.64303615E-01 0.46577243E+03</pdfrwt>
<totfact> 0.88683333E+02</totfact>
</mgrwt>
</event>
<event>
 6      1 +2.5168241e+02 1.99562200e+02 7.54677100e-03 1.03924000e-01
       21 -1    0    0  504  502 +0.0000000000e+00 +0.0000000000e+00 +2.1109697064e+03 2.1109697064e+03 0.0000000000e+00 0.0000e+00 -1.0000e+00
       21 -1    0    0  501  503 -0.0000000000e+00 -0.0000000000e+00 -6.7236144693e+01 6.7236144693e+01 0.0000000000e+00 0.0000e+00 -1.0000e+00
        6  1    1    2  501    0 +5.0627893946e+01 +9.2738597867e+00 +3.5661239408e+02 3.9968811308e+02 1.7300000000e+02 0.0000e+00 -1.0000e+00
       -6  1    1    2    0  505 -1.4023891682e+02 +6.0078370117e+01 +3.3166960582e+02 4.0399268777e+02 1.7300000000e+02 0.0000e+00 -1.0000e+00
       21  1    1    2  504  503 +1.5657956449e+01 -1.0727218814e+02 +3.6944565369e+02 3.8502283696e+02 0.0000000000e+00 0.0000e+00 -1.0000e+00
       21  1    1    2  505  502 +7.3953066428e+01 +3.7919958238e+01 +9.8600590809e+02 9.8950221327e+02 0.0000000000e+00 0.0000e+00 -1.0000e+00
<mgrwt>
<rscale>  4 0.19956225E+03</rscale>
<asrwt>0</asrwt>
<pdfrwt beam="1">  1       21 0.32476452E+00 0.19956225E+03</pdfrwt>
<pdfrwt beam="2">  1       21 0.10344024E-01 0.19956225E+03</pdfrwt>
<totfact> 0.18603442E+03</totfact>
</mgrwt>
</event>
<event>
 6      1 +2.5168241e+02 4.16019100e+02 7.54677100e-03 1.12989000e-01
       21 -1    0    0  505  502 +0.0000000000e+00 +0.0000000000e+00 +2.3062869916e+02 2.3062869916e+02 0.0000000000e+00 0.0000e+00 1.0000e+00
       21 -1    0    0  504  503 -0.0000000000e+00 -0.0000000000e+00 -1.8684305060e+03 1.8684305060e+03 0.0000000000e+00 0.0000e+00 1.0000e+00
        6  1    1    2  501    0 +2.0300565160e+01 -3.5593673215e+02 -1.4588097362e+02 4.2227162905e+02 1.7300000000e+02 0.0000e+00 1.0000e+00
       -6  1    1    2    0  502 -2.9114076292e+00 +4.2581771374e+02 -5.2744564869e+02 6.9961211679e+02 1.7300000000e+02 0.0000e+00 1.0000e+00
       21  1    1    2  504  501 -7.6366929180e+01 -5.0676750853e+01 -6.6993991000e+02 6.7618009728e+02 0.0000000000e+00 0.0000e+00 1.0000e+00
       21  1    1    2  505  503 +5.8977771649e+01 -1.9204230737e+01 -2.9453527458e+02 3.0099536209e+02 0.0000000000e+00 0.0000e+00 1.0000e+00
<mgrwt>
<rscale>  4 0.41601912E+03</rscale>
<asrwt>0</asrwt>
<pdfrwt beam="1">  1       21 0.35481338E-01 0.41601912E+03</pdfrwt>
<pdfrwt beam="2">  1       21 0.28745085E+00 0.41601912E+03</pdfrwt>
<totfact> 0.24892314E+02</totfact>
</mgrwt>
</event>
<event>
 6      1 +2.5168241e+02 1.77132300e+02 7.54677100e-03 9.82877400e-02
       21 -1    0    0  501  502 +0.0000000000e+00 +0.0000000000e+00 +3.9324318521e+02 3.9324318521e+02 0.0000000000e+00 0.0000e+00 1.0000e+00
       21 -1    0    0  505  503 -0.0000000000e+00 -0.0000000000e+00 -3.6682486171e+02 3.6682486171e+02 0.0000000000e+00 0.0000e+00 1.0000e+00
        6  1    1    2  501    0 -1.6948158712e+01 -1.5786977707e+01 -5.2935879572e+01 1.8239428745e+02 1.7300000000e+02 0.0000e+00 -1.0000e+00
       -6  1    1    2    0  504 -6.5432514099e+01 +2.0800032515e+01 -1.6466235819e+02 2.4850904905e+02 1.7300000000e+02 0.0000e+00 1.0000e+00
       21  1    1    2  504  503 +6.4347644961e+01 +3.9582254751e+00 -1.7556736944e+01 6.6817108386e+01 0.0000000000e+00 0.0000e+00 1.0000e+00
       21  1    1    2  505  502 +1.8033027850e+01 -8.9712802832e+00 +2.6157329820e+02 2.6234760204e+02 0.0000000000e+00 0.0000e+00 1.0000e+00
<mgrwt>
<rscale>  4 0.17713231E+03</rscale>
<asrwt>0</asrwt>
<pdfrwt beam="1">  1       21 0.60498952E-01 0.17713231E+03</pdfrwt>
<pdfrwt beam="2">  1       21 0.56434594E-01 0.17713231E+03</pdfrwt>
<totfact> 0.76045742E+03</totfact>
</mgrwt>
</event>
<event>
 6      1 +2.5168241e+02 2.82984800e+02 7.54677100e-03 1.16820100e-01
       21 -1    0    0  504  502 +0.0000000000e+00 +0.0000000000e+00 +8.3310702854e+02 8.3310702854e+02 0.0000000000e+00 0.0000e+00 1.0000e+00
       21 -1    0    0  501  503 -0.0000000000e+00 -0.0000000000e+00 -2.6088089914e+02 2.6088089914e+02 0.0000000000e+00 0.0000e+00 -1.0000e+00
        6  1    1    2  501    0 -1.9459235122e+02 +6.3623295533e+01 -2.9900455611e+01 2.6969824644e+02 1.7300000000e+02 0.0000e+00 -1.0000e+00
       -6  1    1    2    0  505 +1.7927824080e+02 -1.7374480389e+02 +4.2548438182e+02 5.2277519420e+02 1.7300000000e+02 0.0000e+00 1.0000e+00
       21  1    1    2  504  503 -8.4122853579e+00 +4.0095426789e+01 -4.9114909336e+01 6.3958456152e+01 0.0000000000e+00 0.0000e+00 -1.0000e+00
       21  1    1    2  505  502 +2.3726395774e+01 +7.0026081571e+01 +2.2575711252e+02 2.3755603089e+02 0.0000000000e+00 0.0000e+00 1.0000e+00
<mgrwt>
<rscale>  4 0.28298485E+03</rscale>
<asrwt>0</asrwt>
<pdfrwt beam="1">  1       21 0.12817031E+00 0.28298485E+03</pdfrwt>
<pdfrwt beam="2">  1       21 0.40135523E-01 0.28298485E+03</pdfrwt>
<totfact> 0.25031655E+03</totfact>
</mgrwt>
</event>
<event>
 6      1 +2.5168241e+02 1.86148300e+02 7.54677100e-03 1.17132900e-01
       21 -1    0    0  503  502 +0.0000000000e+00 +0.0000000000e+00 +1.7578211912e+03 1.7578211912e+03 0.0000000000e+00 0.0000e+00 1.0000e+00
       21 -1    0    0  504  503 -0.0000000000e+00 -0.0000000000e+00 -1.0407316080e+02 1.0407316080e+02 0.0000000000e+00 0.0000e+00 1.0000e+00
        6  1    1    2  501    0 +5.0862097741e+01 -7.8078060113e+01 +8.6890242272e+01 2.1485355631e+02 1.7300000000e+02 0.0000e+00 1.0000e+00
       -6  1    1    2    0  505 +1.5097166837e+01 +8.6884765113e+01 +2.7713670533e+02 3.3839420843e+02 1.7300000000e+02 0.0000e+00 1.0000e+00
       21  1    1    2  504  501 -3.4145418633e+01 +4.6248244017e+01 +8.7193433908e+01 1.0443899944e+02 0.0000000000e+00 0.0000e+00 1.0000e+00
       21  1    1    2  505  502 -3.1813845945e+01 -5.5054949017e+01 +1.2025276489e+03 1.2042075878e+03 0.0000000000e+00 0.0000e+00 1.0000e+00
<mgrwt>
<rscale>  4 0.18614826E+03</rscale>
<asrwt>0</asrwt>
<pdfrwt beam="1">  1       21 0.27043401E+00 0.18614826E+03</pdfrwt>
<pdfrwt beam="2">  1       21 0.16011257E-01 0.18614826E+03</pdfrwt>
<totfact> 0.17742216E+03</totfact>
</mgrwt>
</event>
<event>
 6      1 +2.5168241e+02 1.89128100e+02 7.54677100e-03 1.16820100e-01
       21 -1    0    0  501  502 +0.0000000000e+00 +0.0000000000e+00 +1.9041138330e+02 1.9041138330e+02 0.0000000000e+00 0.0000e+00 1.0000e+00
       21 -1    0    0  504  503 -0.0000000000e+00 -0.0000000000e+00 -5.9419638346e+02 5.9419638346e+02 0.0000000000e+00 0.0000e+00 -1.0000e+00
        6  1    1    2  501    0 +2.7074470939e+01 +9.8944313736e+00 -7.1899199470e+01 1.8955057803e+02 1.7300000000e+02 0.0000e+00 1.0000e+00
       -6  1    1    2    0  503 -1.1778187233e+02 -5.0487990860e+01 -3.9034214218e+01 2.1880191167e+02 1.7300000000e+02 0.0000e+00 1.0000e+00
       21  1    1    2  504  505 +5.1209162122e+01 +2.3059709924e+01 -3.2021681041e+02 3.2510449732e+02 0.0000000000e+00 0.0000e+00 -1.0000e+00
       21  1    1    2  505  502 +3.9498239267e+01 +1.7533849563e+01 +2.7365223947e+01 5.1150779733e+01 0.0000000000e+00 0.0000e+00 1.0000e+00
<mgrwt>
<rscale>  4 0.18912808E+03</rscale>
<asrwt>0</asrwt>
<pdfrwt beam="1">  1       21 0.29294060E-01 0.18912808E+03</pdfrwt>
<pdfrwt beam="2">  1       21 0.91414826E-01 0.18912808E+03</pdfrwt>
<totfact> 0.11337224E+04</totfact>
</mgrwt>
</event>
<event>
 6      1 +2.5168241e+02 1.75408900e+02 7.54677100e-03 1.16820100e-01
       21 -1    0    0  503  502 +0.0000000000e+00 +0.0000000000e+00 +3.1560897246e+01 3.1560897246e+01 0.0000000000e+00 0.0000e+00 -1.0000e+00
       21 -1    0    0  501  503 -0.0000000000e+00 -0.0000000000e+00 -1.4771836853e+03 1.4771836853e+03 0.0000000000e+00 0.0000e+00 -1.0000e+00
        6  1    1    2  501    0 +2.8697031206e+01 +1.2536659898e+01 -6.0997922871e+02 6.3481048109e+02 1.7300000000e+02 0.0000e+00 1.0000e+00
       -6  1    1    2    0  504 +2.8024751371e+01 -4.4482116757e+01 -6.8537938506e+02 7.0882857368e+02 1.7300000000e+02 0.0000e+00 -1.0000e+00
       21  1    1    2  504  505 -3.2655685579e+01 +1.7616078950e+01 -1.0974694856e+02 1.1584952636e+02 0.0000000000e+00 0.0000e+00 -1.0000e+00
       21  1    1    2  505  502 -2.4066096998e+01 +1.4329377908e+01 -4.0517225727e+01 4.9256001427e+01 0.0000000000e+00 0.0000e+00 1.0000e+00
<mgrwt>
<rscale>  4 0.17540893E+03</rscale>
<asrwt>0</asrwt>
<pdfrwt beam="1">  1       21 0.48555225E-02 0.17540893E+03</pdfrwt>
<pdfrwt beam="2">  1       21 0.22725903E+00 0.17540893E+03</pdfrwt>
<totfact> 0.26045912E+04</totfact>
</mgrwt>
</event>
<event>
 6      1 +2.5168241e+02 4.01336900e+02 7.54677100e-03 1.11910500e-01
       21 -1    0    0  501  502 +0.0000000000e+00 +0.0000000000e+00 +5.3662275786e+02 5.3662275786e+02 0.0000000000e+00 0.0000e+00 1.0000e+00
       21 -1    0    0  504  503 -0.0000000000e+00 -0.0000000000e+00 -1.5456552717e+03 1.5456552717e+03 0.0000000000e+00 0.0000e+00 -1.0000e+00
        6  1    1    2  501    0 -1.3565361655e+02 +3.7673538168e+02 +7.8014991675e+01 4.4311035919e+02 1.7300000000e+02 0.0000e+00 -1.0000e+00
       -6  1    1    2    0  503 +3.0647026081e+01 -3.3797921652e+02 +1.4002627867e+02 4.0583931516e+02 1.7300000000e+02 0.0000e+00 1.0000e+00
       21  1    1    2  504  505 +3.4942397153e+00 -2.0210516126e+01 -2.4019200494e+02 2.4106611937e+02 0.0000000000e+00 0.0000e+00 -1.0000e+00
       21  1    1    2  505  502 +1.0151235075e+02 -1.8545649035e+01 -9.8688177921e+02 9.9226223579e+02 0.0000000000e+00 0.0000e+00 -1.0000e+00
<mgrwt>
<rscale>  4 0.40133691E+03</rscale>
<asrwt>0</asrwt>
<pdfrwt beam="1">  1       21 0.82557348E-01 0.40133691E+03</pdfrwt>
<pdfrwt beam="2">  1       21 0.23779312E+00 0.40133691E+03</pdfrwt>
<totfact> 0.81383209E+01</totfact>
</mgrwt>
</event>
<event>
 6      1 +2.5168241e+02 3.25532800e+02 7.54677100e-03 1.11471900e-01
       21 -1    0    0  503  502 +0.0000000000e+00 +0.0000000000e+00 +1.1725550601e+02 1.1725550601e+02 0.0000000000e+00 0.0000e+00 -1.0000e+00
       21 -1    0    0  501  503 -0.0000000000e+00 -0.0000000000e+00 -1.2916139265e+03 1.2916139265e+03 0.0000000000e+00 0.0000e+00 -1.0000e+00
        6  1    1    2  501    0 -2.1312715765e+02 -1.8740196607e+02 -4.2970975363e+02 5.4325146533e+02 1.7300000000e+02 0.0000e+00 -1.0000e+00
       -6  1    1    2    0  505 +1.8509077647e+02 +1.9877839153e+02 -7.5540830819e+02 8.2118338790e+02 1.7300000000e+02 0.0000e+00 -1.0000e+00
       21  1    1    2  504  502 +1.9805265377e+01 +8.0115139181e+00 +9.3616801303e+00 2.3325392746e+01 0.0000000000e+00 0.0000e+00 -1.0000e+00
       21  1    1    2  505  504 +8.2311158021e+00 -1.9387939383e+01 +1.3979611991e+00 2.1109186540e+01 0.0000000000e+00 0.0000e+00 -1.0000e+00
<mgrwt>
<rscale>  4 0.32553275E+03</rscale>
<asrwt>0</asrwt>
<pdfrwt beam="1">  1       21 0.18039307E-01 0.32553275E+03</pdfrwt>
<pdfrwt beam="2">  1       21 0.19870985E+00 0.32553275E+03</pdfrwt>
<totfact> 0.34670798E+03</totfact>
</mgrwt>
</event>
<event>
 6      1 +2.5168241e+02 2.31870300e+02 7.54677100e-03 1.05831300e-01
       21 -1    0    0  504  502 +0.0000000000e+00 +0.0000000000e+00 +5.5828294913e+02 5.5828294913e+02 0.0000000000e+00 0.0000e+00 1.0000e+00
       21 -1    0    0  501  503 -0.0000000000e+00 -0.0000000000e+00 -2.2513069280e+02 2.2513069280e+02 0.0000000000e+00 0.0000e+00 -1.0000e+00
        6  1    1    2  501    0 +1.7326002544e+02 -5.2008076016e+00 +2.2865393158e+02 3.3504881024e+02 1.7300000000e+02 0.0000e+00 1.0000e+00
       -6  1    1    2    0  505 -1.4229896160e+02 +4.9607480038e+01 -8.2590147899e+01 2.4384427219e+02 1.7300000000e+02 0.0000e+00 -1.0000e+00
       21  1    1    2  504  503 -2.0705598710e+01 -2.7174918991e+01 +2.7997452658e+01 4.4170752716e+01 0.0000000000e+00 0.0000e+00 1.0000e+00
       21  1    1    2  505  502 -1.0255465131e+01 -1.7231753445e+01 +1.5909102000e+02 1.6034980678e+02 0.0000000000e+00 0.0000e+00 1.0000e+00
<mgrwt>
<rscale>  4 0.23187033E+03</rscale>
<asrwt>0</asrwt>
<pdfrwt beam="1">  1       21 0.85889684E-01 0.23187033E+03</pdfrwt>
<pdfrwt beam="2">  1       21 0.34635491E-01 0.23187033E+03</pdfrwt>
<totfact> 0.91575768E+03</totfact>
</mgrwt>
</event>
<event>
 6      1 +2.5168241e+02 1.97888900e+02 7.54677100e-03 1.16820100e-01
       21 -1    0    0  501  502 +0.0000000000e+00 +0.0000000000e+00 +4.8177630923e+02 4.8177630923e+02 0.0000000000e+00 0.0000e+00 1.0000e+00
       21 -1    0    0  504  503 -0.0000000000e+00 -0.0000000000e+00 -5.3897029585e+02 5.3897029585e+02 0.0000000000e+00 0.0000e+00 1.0000e+00
        6  1    1    2  501    0 +6.9198092507e+01 +1.7491786275e+01 +3.3490368798e+02 3.8364543372e+02 1.7300000000e+02 0.0000e+00 1.0000e+00
       -6  1    1    2    0  503 -1.1541247266e+02 +5.1720682353e+01 -3.0503512563e+02 3.7278746720e+02 1.7300000000e+02 0.0000e+00 1.0000e+00
       21  1    1    2  504  505 +1.8461830381e+01 -4.8033885871e+01 -1.6824738662e+02 1.7594111650e+02 0.0000000000e+00 0.0000e+00 1.0000e+00
       21  1    1    2  505  502 +2.7752549769e+01 -2.1178582758e+01 +8.1184837645e+01 8.8372587660e+01 0.0000000000e+00 0.0000e+00 1.0000e+00
<mgrwt>
<rscale>  4 0.19788889E+03</rscale>
<asrwt>0</asrwt>
<pdfrwt beam="1">  1       21 0.74119433E-01 0.19788889E+03</pdfrwt>
<pdfrwt beam="2">  1       21 0.82918507E-01 0.19788889E+03</pdfrwt>
<totfact> 0.20601088E+03</totfact>
</mgrwt>
</event>
<event>
 6      1 +2.5168241e+02 3.02569800e+02 7.54677100e-03 1.15942100e-01
       21 -1    0    0  504  502 +0.0000000000e+00 +0.0000000000e+00 +9.1341146792e+02 9.1341146792e+02 0.0000000000e+00 0.0000e+00 1.0000e+00
       21 -1    0    0  501  503 -0.0000000000e+00 -0.0000000000e+00 -1.9296156930e+03 1.9296156930e+03 0.0000000000e+00 0.0000e+00 1.0000e+00
        6  1    1    2  501    0 -4.7163550205e+02 +1.0510226201e+02 -2.4241821336e+02 5.6761089000e+02 1.7300000000e+02 0.0000e+00 1.0000e+00
       -6  1    1    2    0  502 +2.2469102139e+02 -5.7061259244e+01 +7.1066720833e+02 7.6728021178e+02 1.7300000000e+02 0.0000e+00 1.0000e+00
       21  1    1    2  504  505 +2.1922041440e+02 -3.7444078536e+01 -1.4182916744e+03 1.4356221378e+03 0.0000000000e+00 0.0000e+00 1.0000e+00
       21  1    1    2  505  503 +2.7724066262e+01 -1.0596924230e+01 -6.6161545717e+01 7.2513921318e+01 0.0000000000e+00 0.0000e+00 -1.0000e+00
<mgrwt>
<rscale>  4 0.30256980E+03</rscale>
<asrwt>0</asrwt>
<pdfrwt beam="1">  1       21 0.14052484E+00 0.30256980E+03</pdfrwt>
<pdfrwt beam="2">  1       21 0.29686395E+00 0.30256980E+03</pdfrwt>
<totfact> 0.10646850E+01</totfact>
</mgrwt>
</event>
<event>
 6      1 +2.5168241e+02 1.97452400e+02 7.54677100e-03 1.03924000e-01
       21 -1    0    0  504  502 +0.0000000000e+00 +0.0000000000e+00 +5.5785831761e+02 5.5785831761e+02 0.0000000000e+00 0.0000e+00 -1.0000e+00
       21 -1    0    0  501  503 -0.0000000000e+00 -0.0000000000e+00 -1.9742403495e+02 1.9742403495e+02 0.0000000000e+00 0.0000e+00 -1.0000e+00
        6  1    1    2  501    0 +8.7452856329e+01 -1.5015074730e+01 -9.3273447238e+01 2.1564412932e+02 1.7300000000e+02 0.0000e+00 -1.0000e+00
       -6  1    1    2    0  505 -1.3053092927e+02 -3.6481936262e+00 +2.8029462424e+02 3.5432429946e+02 1.7300000000e+02 0.0000e+00 -1.0000e+00
       21  1    1    2  504  503 +2.6106581880e+01 -3.9900004700e+00 +1.3522258090e+02 1.3777742960e+02 0.0000000000e+00 0.0000e+00 -1.0000e+00
       21  1    1    2  505  502 +1.6971491059e+01 +2.2653268826e+01 +3.8190524760e+01 4.7536494178e+01 0.0000000000e+00 0.0000e+00 -1.0000e+00
<mgrwt>
<rscale>  4 0.19745240E+03</rscale>
<asrwt>0</asrwt>
<pdfrwt beam="1">  1       21 0.85824356E-01 0.19745240E+03</pdfrwt>
<pdfrwt beam="2">  1       21 0.30372929E-01 0.19745240E+03</pdfrwt>
<totfact> 0.12153082E+04</totfact>
</mgrwt>
</event>
<event>
 6      1 +2.5168241e+02 2.72989800e+02 7.54677100e-03 1.15942100e-01
       21 -1    0    0  504  502 +0.0000000000e+00 +0.0000000000e+00 +7.4062005877e+02 7.4062005877e+02 0.0000000000e+00 0.0000e+00 1.0000e+00
       21 -1    0    0  501  503 -0.0000000000e+00 -0.0000000000e+00 -8.2075303953e+02 8.2075303953e+02 0.0000000000e+00 0.0000e+00 -1.0000e+00
        6  1    1    2  501    0 +8.0697653812e+01 -2.1493658487e+02 +7.6028385302e+01 2.9735359796e+02 1.7300000000e+02 0.0000e+00 1.0000e+00
       -6  1    1    2    0  502 -5.1025045925e+01 +7.0335234857e+00 +5.2264901996e+02 5.5294124808e+02 1.7300000000e+02 0.0000e+00 1.0000e+00
       21  1    1    2  504  505 -2.8012784323e+01 +1.8608035286e+02 -6.3169977708e+02 6.5913217353e+02 0.0000000000e+00 0.0000e+00 -1.0000e+00
       21  1    1    2  505  503 -1.6598235637e+00 +2.1822708523e+01 -4.7110608933e+01 5.1946078732e+01 0.0000000000e+00 0.0000e+00 -1.0000e+00
<mgrwt>
<rscale>  4 0.24616829E+03</rscale>
<asrwt>0</asrwt>
<pdfrwt beam="1">  1       21 0.11394155E+00 0.27298983E+03</pdfrwt>
<pdfrwt beam="2">  1       21 0.12626970E+00 0.27298983E+03</pdfrwt>
<totfact> 0.25670605E+02</totfact>
</mgrwt>
</event>
<event>
 6      1 +2.5168241e+02 1.77368000e+02 7.54677100e-03 1.17132900e-01
       21 -1    0    0  505  502 +0.0000000000e+00 +0.0000000000e+00 +2.3886566994e+02 2.3886566994e+02 0.0000000000e+00 0.0000e+00 -1.0000e+00
       21 -1    0    0  504  503 -0.0000000000e+00 -0.0000000000e+00 -3.7751810921e+02 3.7751810921e+02 0.0000000000e+00 0.0000e+00 -1.0000e+00
        6  1    1    2  501    0 +4.8174815375e+01 +9.3321349574e+01 -5.7359451423e+01 2.1035397260e+02 1.7300000000e+02 0.0000e+00 1.0000e+00
       -6  1    1    2    0  502 -1.7465235446e+01 +1.3674306059e+00 +6.3202077804e+01 1.8501461281e+02 1.7300000000e+02 0.0000e+00 -1.0000e+00
       21  1    1    2  504  501 -3.4501945651e+01 -1.4400255014e+01 -1.3499650056e+02 1.4007785964e+02 0.0000000000e+00 0.0000e+00 -1.0000e+00
       21  1    1    2  505  503 +3.7923657219e+00 -8.0288525166e+01 -9.4985650860e+00 8.0937334091e+01 0.0000000000e+00 0.0000e+00 1.0000e+00
<mgrwt>
<rscale>  4 0.17736803E+03</rscale>
<asrwt>0</asrwt>
<pdfrwt beam="1">  1       21 0.36748565E-01 0.17736803E+03</pdfrwt>
<pdfrwt beam="2">  1       21 0.58079709E-01 0.17736803E+03</pdfrwt>
<totfact> 0.20023031E+04</totfact>
</mgrwt>
</event>
<event>
 6      1 +2.5168241e+02 2.40245400e+02 7.54677100e-03 1.17132900e-01
       21 -1    0    0  503  502 +0.0000000000e+00 +0.0000000000e+00 +5.1075382874e+02 5.1075382874e+02 0.0000000000e+00 0.0000e+00 1.0000e+00
       21 -1    0    0  504  503 -0.0000000000e+00 -0.0000000000e+00 -1.3421633132e+03 1.3421633132e+03 0.0000000000e+00 0.0000e+00 1.0000e+00
        6  1    1    2  501    0 +1.8301125463e+02 -8.7792851839e+01 -1.2200297776e+03 1.2488404071e+03 1.7300000000e+02 0.0000e+00 1.0000e+00
       -6  1    1    2    0  505 -1.1673912550e+02 +6.0767779040e+01 +2.5545329862e+02 3.3541934078e+02 1.7300000000e+02 0.0000e+00 1.0000e+00
       21  1    1    2  504  501 -3.4921238081e+01 +9.5934886590e+00 -6.1143423654e+01 7.1063676726e+01 0.0000000000e+00 0.0000e+00 1.0000e+00
       21  1    1    2  505  502 -3.1350891042e+01 +1.7431584140e+01 +1.9431041821e+02 1.9759371731e+02 0.0000000000e+00 0.0000e+00 1.0000e+00
<mgrwt>
<rscale>  4 0.24024544E+03</rscale>
<asrwt>0</asrwt>
<pdfrwt beam="1">  1       21 0.78577513E-01 0.24024544E+03</pdfrwt>
<pdfrwt beam="2">  1       21 0.20648666E+00 0.24024544E+03</pdfrwt>
<totfact> 0.16478988E+02</totfact>
</mgrwt>
</event>
<event>
 6      1 +2.5168241e+02 1.92061600e+02 7.54677100e-03 1.17132900e-01
       21 -1    0    0  503  502 +0.0000000000e+00 +0.0000000000e+00 +1.4256634751e+03 1.4256634751e+03 0.0000000000e+00 0.0000e+00 1.0000e+00
       21 -1    0    0  504  503 -0.0000000000e+00 -0.0000000000e+00 -4.5379222161e+02 4.5379222161e+02 0.0000000000e+00 0.0000e+00 1.0000e+00
        6  1    1    2  501    0 -1.0363057122e+01 -8.2057179568e+01 +8.5590187549e+02 8.7711903077e+02 1.7300000000e+02 0.0000e+00 1.0000e+00
       -6  1    1    2    0  505 +1.3741511831e+01 +8.9271939559e+01 +4.0616417401e+02 4.5061806953e+02 1.7300000000e+02 0.0000e+00 1.0000e+00
       21  1    1    2  504  501 -2.4611233507e+01 -1.0487952128e+01 -4.1964545271e+02 4.2049734355e+02 0.0000000000e+00 0.0000e+00 1.0000e+00
       21  1    1    2  505  502 +2.1232778799e+01 +3.2731921366e+00 +1.2945065672e+02 1.3122125288e+02 0.0000000000e+00 0.0000e+00 -1.0000e+00
<mgrwt>
<rscale>  4 0.19206157E+03</rscale>
<asrwt>0</asrwt>
<pdfrwt beam="1">  1       21 0.21933284E+00 0.19206157E+03</pdfrwt>
<pdfrwt beam="2">  1       21 0.69814188E-01 0.19206157E+03</pdfrwt>
<totfact> 0.18943193E+02</totfact>
</mgrwt>
</event>
<event>
 6      1 +2.5168241e+02 2.06853000e+02 7.54677100e-03 1.12989000e-01
       21 -1    0    0  505  502 +0.0000000000e+00 +0.0000000000e+00 +3.0018521453e+02 3.0018521453e+02 0.0000000000e+00 0.0000e+00 1.0000e+00
       21 -1    0    0  504  503 -0.0000000000e+00 -0.0000000000e+00 -9.3498784300e+02 9.3498784300e+02 0.0000000000e+00 0.0000e+00 1.0000e+00
        6  1    1    2  501    0 +8.9385830831e+01 -6.4460018757e+01 +1.8993778241e+02 2.7955371927e+02 1.7300000000e+02 0.0000e+00 1.0000e+00
       -6  1    1    2    0  502 -2.2103569677e+02 -6.9908236182e+01 -4.8063594161e+02 5.6096688770e+02 1.7300000000e+02 0.0000e+00 1.0000e+00
       21  1    1    2  504  501 +2.4351886239e+01 +2.4154454803e+01 -1.0393630358e+02 1.0944956488e+02 0.0000000000e+00 0.0000e+00 -1.0000e+00
       21  1    1    2  505  503 +1.0729797970e+02 +1.1021380014e+02 -2.4016816569e+02 2.8520288568e+02 0.0000000000e+00 0.0000e+00 1.0000e+00
<mgrwt>
<rscale>  4 0.20685300E+03</rscale>
<asrwt>0</asrwt>
<pdfrwt beam="1">  1       21 0.46182342E-01 0.20685300E+03</pdfrwt>
<pdfrwt beam="2">  1       21 0.14384428E+00 0.20685300E+03</pdfrwt>
<totfact> 0.14778978E+03</totfact>
</mgrwt>
</event>
<event>
 6      1 +2.5168241e+02 2.32409100e+02 7.54677100e-03 1.11896800e-01
       21 -1    0    0  501  502 +0.0000000000e+00 +0.0000000000e+00 +1.2646646432e+02 1.2646646432e+02 0.0000000000e+00 0.0000e+00 1.0000e+00
       21 -1    0    0  502  503 -0.0000000000e+00 -0.0000000000e+00 -1.0187263008e+03 1.0187263008e+03 0.0000000000e+00 0.0000e+00 1.0000e+00
        6  1    1    2  501    0 +1.7122683213e+02 +1.8184646180e+02 -3.8165449548e+02 4.8782775406e+02 1.7300000000e+02 0.0000e+00 1.0000e+00
       -6  1    1    2    0  505 +9.2208580271e+00 -1.2329115113e+02 -2.0291863479e+02 2.9392295677e+02 1.7300000000e+02 0.0000e+00 1.0000e+00
       21  1    1    2  504  503 -1.4697956811e+02 -4.8573257857e+01 -2.7517192252e+02 3.1572447128e+02 0.0000000000e+00 0.0000e+00 1.0000e+00
       21  1    1    2  505  504 -3.3468122040e+01 -9.9820528194e+00 -3.2514783740e+01 4.7717583059e+01 0.0000000000e+00 0.0000e+00 1.0000e+00
<mgrwt>
<rscale>  4 0.23240912E+03</rscale>
<asrwt>0</asrwt>
<pdfrwt beam="1">  1       21 0.19456379E-01 0.23240912E+03</pdfrwt>
<pdfrwt beam="2">  1       21 0.15672713E+00 0.23240912E+03</pdfrwt>
<totfact> 0.62700056E+03</totfact>
</mgrwt>
</event>
<event>
 6      1 +2.5168241e+02 2.68983200e+02 7.54677100e-03 1.12989000e-01
       21 -1    0    0  505  502 +0.0000000000e+00 +0.0000000000e+00 +2.0173856304e+02 2.0173856304e+02 0.0000000000e+00 0.0000e+00 -1.0000e+00
       21 -1    0    0  504  503 -0.0000000000e+00 -0.0000000000e+00 -7.9055465403e+02 7.9055465403e+02 0.0000000000e+00 0.0000e+00 1.0000e+00
        6  1    1    2  501    0 -6.9335355453e+01 +8.0248504794e+01 -7.8452288838e+01 2.1755683318e+02 1.7300000000e+02 0.0000e+00 -1.0000e+00
       -6  1    1    2    0  502 +2.5072926415e+02 +2.4672293834e+00 -1.0996507224e+02 3.2387122168e+02 1.7300000000e+02 0.0000e+00 1.0000e+00
       21  1    1    2  504  501 -1.5309526851e+02 -9.0293564537e+01 -3.3594298862e+02 3.8006417963e+02 0.0000000000e+00 0.0000e+00 -1.0000e+00
       21  1    1    2  505  503 -2.8298640180e+01 +7.5778303593e+00 -6.4455741296e+01 7.0800982585e+01 0.0000000000e+00 0.0000e+00 -1.0000e+00
<mgrwt>
<rscale>  4 0.25068288E+03</rscale>
<asrwt>0</asrwt>
<pdfrwt beam="1">  1       21 0.31036701E-01 0.26898321E+03</pdfrwt>
<pdfrwt beam="2">  1       21 0.12162380E+00 0.26898321E+03</pdfrwt>
<totfact> 0.48272293E+03</totfact>
</mgrwt>
</event>
<event>
 6      1 +2.5168241e+02 2.09512900e+02 7.54677100e-03 1.17132900e-01
       21 -1    0    0  503  502 +0.0000000000e+00 +0.0000000000e+00 +4.5790708857e+01 4.5790708857e+01 0.0000000000e+00 0.0000e+00 -1.0000e+00
       21 -1    0    0  504  503 -0.0000000000e+00 -0.0000000000e+00 -1.5467385185e+03 1.5467385185e+03 0.0000000000e+00 0.0000e+00 -1.0000e+00
        6  1    1    2  501    0 -1.0430488130e+02 +8.9913947632e+01 -5.9682478552e+02 6.3646904941e+02 1.7300000000e+02 0.0000e+00 -1.0000e+00
       -6  1    1    2    0  505 +1.0753980941e+02 -2.9376822186e+01 -7.2618080849e+02 7.5478167367e+02 1.7300000000e+02 0.0000e+00 -1.0000e+00
       21  1    1    2  504  501 -1.8344538531e+01 -1.5370726700e+01 -1.3514570206e+02 1.3724846855e+02 0.0000000000e+00 0.0000e+00 -1.0000e+00
       21  1    1    2  505  502 +1.5109610429e+01 -4.5166398747e+01 -4.2796513594e+01 6.4030035756e+01 0.0000000000e+00 0.0000e+00 1.0000e+00
<mgrwt>
<rscale>  4 0.20951290E+03</rscale>
<asrwt>0</asrwt>
<pdfrwt beam="1">  1       21 0.70447239E-02 0.20951290E+03</pdfrwt>
<pdfrwt beam="2">  1       21 0.23795979E+00 0.20951290E+03</pdfrwt>
<totfact> 0.11547858E+04</totfact>
</mgrwt>
</event>
<event>
 6      1 +2.5168241e+02 2.72711700e+02 7.54677100e-03 1.15942100e-01
       21 -1    0    0  504  502 +0.0000000000e+00 +0.0000000000e+00 +1.2617639274e+02 1.2617639274e+02 0.0000000000e+00 0.0000e+00 1.0000e+00
       21 -1    0    0  501  503 -0.0000000000e+00 -0.0000000000e+00 -1.3947925756e+03 1.3947925756e+03 0.0000000000e+00 0.0000e+00 1.0000e+00
        6  1    1    2  501    0 -1.1108523144e+02 +1.9847264583e+02 -9.2892705040e+01 3.0048190368e+02 1.7300000000e+02 0.0000e+00 1.0000e+00
       -6  1    1    2    0  502 +1.0813156020e+02 -1.0576879084e+02 -7.4941803632e+02 7.8385959495e+02 1.7300000000e+02 0.0000e+00 1.0000e+00
       21  1    1    2  504  505 -3.8140373097e+00 -2.6970907426e+01 -1.5612797688e+02 1.5848634608e+02 0.0000000000e+00 0.0000e+00 1.0000e+00
       21  1    1    2  505  503 +6.7677085482e+00 -6.5732947568e+01 -2.7017746461e+02 2.7814112364e+02 0.0000000000e+00 0.0000e+00 1.0000e+00
<mgrwt>
<rscale>  4 0.27271166E+03</rscale>
<asrwt>0</asrwt>
<pdfrwt beam="1">  1       21 0.19411754E-01 0.27271166E+03</pdfrwt>
<pdfrwt beam="2">  1       21 0.21458346E+00 0.27271166E+03</pdfrwt>
<totfact> 0.24703217E+03</totfact>
</mgrwt>
</event>
<event>
 6      1 +2.5168241e+02 1.77703500e+02 7.54677100e-03 1.15942100e-01
       21 -1    0    0  504  502 +0.0000000000e+00 +0.0000000000e+00 +6.9915784891e+02 6.9915784891e+02 0.0000000000e+00 0.0000e+00 1.0000e+00
       21 -1    0    0  501  503 -0.0000000000e+00 -0.0000000000e+00 -1.1402750576e+02 1.1402750576e+02 0.0000000000e+00 0.0000e+00 1.0000e+00
        6  1    1    2  501    0 +4.2433898995e+01 -5.9979199499e+00 +5.3238145570e+02 5.6142285774e+02 1.7300000000e+02 0.0000e+00 1.0000e+00
       -6  1    1    2    0  502 -1.7736463446e+01 +5.3009467237e+01 +6.5633354078e+01 1.9329077298e+02 1.7300000000e+02 0.0000e+00 1.0000e+00
       21  1    1    2  504  505 -1.9721698702e+01 -1.5630740978e+01 -4.0051705654e+00 2.5481500240e+01 0.0000000000e+00 0.0000e+00 1.0000e+00
       21  1    1    2  505  503 -4.9757368471e+00 -3.1380806309e+01 -8.8792960575e+00 3.2990223707e+01 0.0000000000e+00 0.0000e+00 1.0000e+00
<mgrwt>
<rscale>  4 0.17770349E+03</rscale>
<asrwt>0</asrwt>
<pdfrwt beam="1">  1       21 0.10756274E+00 0.17770349E+03</pdfrwt>
<pdfrwt beam="2">  1       21 0.17542694E-01 0.17770349E+03</pdfrwt>
<totfact> 0.20489101E+04</totfact>
</mgrwt>
</event>
<event>
 6      1 +2.5168241e+02 2.78874300e+02 7.54677100e-03 1.16584500e-01
       21 -1    0    0  505  502 +0.0000000000e+00 +0.0000000000e+00 +6.4305668100e+02 6.4305668100e+02 0.0000000000e+00 0.0000e+00 1.0000e+00
       21 -1    0    0  504  503 -0.0000000000e+00 -0.0000000000e+00 -7.9368925926e+02 7.9368925926e+02 0.0000000000e+00 0.0000e+00 1.0000e+00
        6  1    1    2  501    0 -1.6724575017e+02 -1.0046475069e+02 -1.0726452639e+02 2.8195564492e+02 1.7300000000e+02 0.0000e+00 1.0000e+00
       -6  1    1    2    0  502 -7.8645166550e+01 -1.8576735934e+01 -1.1059660071e+01 1.9126283858e+02 1.7300000000e+02 0.0000e+00 -1.0000e+00
       21  1    1    2  504  501 +2.3399488667e+02 -5.4608084587e+00 -4.6097255372e+02 5.1699044740e+02 0.0000000000e+00 0.0000e+00 1.0000e+00
       21  1    1    2  505  503 +1.1896030047e+01 +1.2450229509e+02 +4.2866416192e+02 4.4653700936e+02 0.0000000000e+00 0.0000e+00 1.0000e+00
<mgrwt>
<rscale>  4 0.25381587E+03</rscale>
<asrwt>0</asrwt>
<pdfrwt beam="1">  1       21 0.98931797E-01 0.27887433E+03</pdfrwt>
<pdfrwt beam="2">  1       21 0.12210604E+00 0.27887433E+03</pdfrwt>
<totfact> 0.39194279E+02</totfact>
</mgrwt>
</event>
<event>
 6      1 +2.5168241e+02 3.66814700e+02 7.54677100e-03 1.17132900e-01
       21 -1    0    0  505  502 +0.0000000000e+00 +0.0000000000e+00 +3.5283261082e+03 3.5283261082e+03 0.0000000000e+00 0.0000e+00 -1.0000e+00
       21 -1    0    0  504  503 -0.0000000000e+00 -0.0000000000e+00 -1.8245865683e+02 1.8245865683e+02 0.0000000000e+00 0.0000e+00 1.0000e+00
        6  1    1    2  501    0 -5.1561295922e+01 +8.2900957425e+01 +3.2315483488e+02 3.7932727727e+02 1.7300000000e+02 0.0000e+00 1.0000e+00
       -6  1    1    2    0  502 +1.0820743968e+02 +2.5193281412e+02 +6.0259140838e+01 3.2975620826e+02 1.7300000000e+02 0.0000e+00 -1.0000e+00
       21  1    1    2  504  501 +2.7112629355e+01 -1.8796352119e+01 +1.5122818936e+01 3.6291833462e+01 0.0000000000e+00 0.0000e+00 1.0000e+00
       21  1    1    2  505  503 -8.3758773110e+01 -3.1603741942e+02 +2.9473306568e+03 2.9654094461e+03 0.0000000000e+00 0.0000e+00 -1.0000e+00
<mgrwt>
<rscale>  4 0.31372569E+03</rscale>
<asrwt>0</asrwt>
<pdfrwt beam="1">  1       21 0.54281935E+00 0.36681466E+03</pdfrwt>
<pdfrwt beam="2">  1       21 0.28070565E-01 0.36681466E+03</pdfrwt>
<totfact> 0.87505415E+00</totfact>
</mgrwt>
</event>
<event>
 6      1 +2.5168241e+02 2.32629500e+02 7.54677100e-03 1.15942100e-01
       21 -1    0    0  504  502 +0.0000000000e+00 +0.0000000000e+00 +3.1114628394e+03 3.1114628394e+03 0.0000000000e+00 0.0000e+00 1.0000e+00
       21 -1    0    0  501  503 -0.0000000000e+00 -0.0000000000e+00 -6.7428212991e+01 6.7428212991e+01 0.0000000000e+00 0.0000e+00 1.0000e+00
        6  1    1    2  501    0 -4.4837749353e+01 -1.4991937590e+02 +2.3068706224e+03 2.3186347948e+03 1.7300000000e+02 0.0000e+00 1.0000e+00
       -6  1    1    2    0  502 +2.6890533566e+01 +1.5090512281e+02 +7.0548261778e+02 7.4238142546e+02 1.7300000000e+02 0.0000e+00 1.0000e+00
       21  1    1    2  504  505 +1.0850697357e+01 +4.3033194251e+01 +5.2434155930e+01 6.8694498679e+01 0.0000000000e+00 0.0000e+00 -1.0000e+00
       21  1    1    2  505  503 +7.0965184300e+00 -4.4018941157e+01 -2.0752769672e+01 4.9180333503e+01 0.0000000000e+00 0.0000e+00 1.0000e+00
<mgrwt>
<rscale>  4 0.23262954E+03</rscale>
<asrwt>0</asrwt>
<pdfrwt beam="1">  1       21 0.47868648E+00 0.23262954E+03</pdfrwt>
<pdfrwt beam="2">  1       21 0.10373574E-01 0.23262954E+03</pdfrwt>
<totfact> 0.18970935E+02</totfact>
</mgrwt>
</event>
<event>
 6      1 +2.5168241e+02 1.91634900e+02 7.54677100e-03 1.17132900e-01
       21 -1    0    0  505  502 +0.0000000000e+00 +0.0000000000e+00 +8.5700764789e+02 8.5700764789e+02 0.0000000000e+00 0.0000e+00 -1.0000e+00
       21 -1    0    0  504  503 -0.0000000000e+00 -0.0000000000e+00 -2.2369693575e+02 2.2369693575e+02 0.0000000000e+00 0.0000e+00 -1.0000e+00
        6  1    1    2  501    0 +1.2040770592e+02 +1.2928836716e+01 +5.4412900093e+02 5.8366988968e+02 1.7300000000e+02 0.0000e+00 -1.0000e+00
       -6  1    1    2    0  502 -5.2618496863e+01 -1.7851052477e+01 -9.7275863568e+01 2.0610424527e+02 1.7300000000e+02 0.0000e+00 -1.0000e+00
       21  1    1    2  504  501 -2.1915450446e+01 -1.7460502663e+01 -4.5492985245e+01 5.3430027400e+01 0.0000000000e+00 0.0000e+00 -1.0000e+00
       21  1    1    2  505  503 -4.5873758613e+01 +2.2382718424e+01 +2.3195056003e+02 2.3750042129e+02 0.0000000000e+00 0.0000e+00 -1.0000e+00
<mgrwt>
<rscale>  4 0.19163495E+03</rscale>
<asrwt>0</asrwt>
<pdfrwt beam="1">  1       21 0.13184733E+00 0.19163495E+03</pdfrwt>
<pdfrwt beam="2">  1       21 0.34414914E-01 0.19163495E+03</pdfrwt>
<totfact> 0.33971418E+03</totfact>
</mgrwt>
</event>
<event>
 6      1 +2.5168241e+02 2.15009400e+02 7.54677100e-03 1.07240600e-01
       21 -1    0    0  505  502 +0.0000000000e+00 +0.0000000000e+00 +3.3375850222e+02 3.3375850222e+02 0.0000000000e+00 0.0000e+00 -1.0000e+00
       21 -1    0    0  504  503 -0.0000000000e+00 -0.0000000000e+00 -5.1999590571e+02 5.1999590571e+02 0.0000000000e+00 0.0000e+00 -1.0000e+00
        6  1    1    2  501    0 -2.1593937847e+02 +1.6995140998e+01 +5.4401366138e+01 2.8250160819e+02 1.7300000000e+02 0.0000e+00 -1.0000e+00
       -6  1    1    2    0  502 +5.8530034282e+01 -4.4385354211e+01 +3.6715277484e+01 1.9150153050e+02 1.7300000000e+02 0.0000e+00 -1.0000e+00
       21  1    1    2  504  501 -1.7538903646e+01 -3.7767144060e+01 +4.2802652395e+00 4.1860374844e+01 0.0000000000e+00 0.0000e+00 1.0000e+00
       21  1    1    2  505  503 +1.7494824783e+02 +6.5157357274e+01 -2.8163431235e+02 3.3789089440e+02 0.0000000000e+00 0.0000e+00 -1.0000e+00
<mgrwt>
<rscale>  4 0.21500944E+03</rscale>
<asrwt>0</asrwt>
<pdfrwt beam="1">  1       21 0.51347462E-01 0.21500944E+03</pdfrwt>
<pdfrwt beam="2">  1       21 0.79999370E-01 0.21500944E+03</pdfrwt>
<totfact> 0.48734182E+03</totfact>
</mgrwt>
</event>
<event>
 6      1 +2.5168241e+02 2.64294800e+02 7.54677100e-03 1.11910500e-01
       21 -1    0    0  501  502 +0.0000000000e+00 +0.0000000000e+00 +4.1781201757e+02 4.1781201757e+02 0.0000000000e+00 0.0000e+00 1.0000e+00
       21 -1    0    0  505  503 -0.0000000000e+00 -0.0000000000e+00 -1.0385177251e+03 1.0385177251e+03 0.0000000000e+00 0.0000e+00 1.0000e+00
        6  1    1    2  501    0 +4.0196072045e+01 +6.0044049627e+01 +2.6867179127e+02 3.2761951030e+02 1.7300000000e+02 0.0000e+00 1.0000e+00
       -6  1    1    2    0  504 -1.2513624526e+02 -2.1681622700e+02 -1.3784753290e+02 3.3406481181e+02 1.7300000000e+02 0.0000e+00 1.0000e+00
       21  1    1    2  504  503 -1.7751864699e+01 -3.5187734309e+01 -1.4362680856e+02 1.4893611209e+02 0.0000000000e+00 0.0000e+00 -1.0000e+00
       21  1    1    2  505  502 +1.0269203791e+02 +1.9195991168e+02 -6.0790315738e+02 6.4570930851e+02 0.0000000000e+00 0.0000e+00 1.0000e+00
<mgrwt>
<rscale>  4 0.24239333E+03</rscale>
<asrwt>0</asrwt>
<pdfrwt beam="1">  1       21 0.64278772E-01 0.26429484E+03</pdfrwt>
<pdfrwt beam="2">  1       21 0.15977196E+00 0.26429484E+03</pdfrwt>
<totfact> 0.52574397E+02</totfact>
</mgrwt>
</event>
<event>
 6      1 +2.5168241e+02 1.86410300e+02 7.54677100e-03 1.07064900e-01
       21 -1    0    0  505  502 +0.0000000000e+00 +0.0000000000e+00 +7.0605964786e+02 7.0605964786e+02 0.0000000000e+00 0.0000e+00 1.0000e+00
       21 -1    0    0  501  503 -0.0000000000e+00 -0.0000000000e+00 -1.3624287151e+02 1.3624287151e+02 0.0000000000e+00 0.0000e+00 1.0000e+00
        6  1    1    2  501    0 -6.8869066763e+01 +5.2246027422e+01 +1.4561770196e+01 1.9394236486e+02 1.7300000000e+02 0.0000e+00 1.0000e+00
       -6  1    1    2    0  502 +6.1188309348e+01 +6.8639556592e+01 +2.4054361930e+02 3.1023479933e+02 1.7300000000e+02 0.0000e+00 -1.0000e+00
       21  1    1    2  504  503 +1.2613571318e+01 -7.1449030057e+01 +2.1105646742e+02 2.2317907276e+02 0.0000000000e+00 0.0000e+00 1.0000e+00
       21  1    1    2  505  504 -4.9328139031e+00 -4.9436553957e+01 +1.0365491943e+02 1.1494628242e+02 0.0000000000e+00 0.0000e+00 1.0000e+00
<mgrwt>
<rscale>  4 0.18641026E+03</rscale>
<asrwt>0</asrwt>
<pdfrwt beam="1">  1       21 0.10862456E+00 0.18641026E+03</pdfrwt>
<pdfrwt beam="2">  1       21 0.20960442E-01 0.18641026E+03</pdfrwt>
<totfact> 0.14294126E+04</totfact>
</mgrwt>
</event>
<event>
 6      1 +2.5168241e+02 2.47097500e+02 7.54677100e-03 1.07240600e-01
       21 -1    0    0  505  502 +0.0000000000e+00 +0.0000000000e+00 +1.4042837580e+02 1.4042837580e+02 0.0000000000e+00 0.0000e+00 -1.0000e+00
       21 -1    0    0  504  503 -0.0000000000e+00 -0.0000000000e+00 -1.0014560536e+03 1.0014560536e+03 0.0000000000e+00 0.0000e+00 -1.0000e+00
        6  1    1    2  501    0 -6.7845542367e+01 -1.6487494556e+02 -4.5975741386e+02 5.2258266799e+02 1.7300000000e+02 0.0000e+00 -1.0000e+00
       -6  1    1    2    0  502 +4.2398835799e+01 +1.7115172264e+02 -3.8894809833e+01 2.5006475096e+02 1.7300000000e+02 0.0000e+00 -1.0000e+00
       21  1    1    2  504  501 +9.0529666155e+00 -2.9430050100e+01 -8.4827698305e+01 9.0243129673e+01 0.0000000000e+00 0.0000e+00 -1.0000e+00
       21  1    1    2  505  503 +1.6393739952e+01 +2.3153273020e+01 -2.7754775585e+02 2.7899388082e+02 0.0000000000e+00 0.0000e+00 -1.0000e+00
<mgrwt>
<rscale>  4 0.24709748E+03</rscale>
<asrwt>0</asrwt>
<pdfrwt beam="1">  1       21 0.21604366E-01 0.24709748E+03</pdfrwt>
<pdfrwt beam="2">  1       21 0.15407016E+00 0.24709748E+03</pdfrwt>
<totfact> 0.53371580E+03</totfact>
</mgrwt>
</event>
<event>
 6      1 +2.5168241e+02 3.07058900e+02 7.54677100e-03 1.11910500e-01
       21 -1    0    0  501  502 +0.0000000000e+00 +0.0000000000e+00 +9.9156487223e+02 9.9156487223e+02 0.0000000000e+00 0.0000e+00 -1.0000e+00
       21 -1    0    0  505  503 -0.0000000000e+00 -0.0000000000e+00 -6.4975837223e+02 6.4975837223e+02 0.0000000000e+00 0.0000e+00 -1.0000e+00
        6  1    1    2  501    0 -1.3154397650e+01 +3.9080764318e+01 +4.1279216226e+02 4.4947381852e+02 1.7300000000e+02 0.0000e+00 -1.0000e+00
       -6  1    1    2    0  504 +1.1043828490e+02 -2.7043527182e+02 +4.6020750443e+02 5.7188442727e+02 1.7300000000e+02 0.0000e+00 -1.0000e+00
       21  1    1    2  504  503 -4.2436197496e+01 -1.2819724706e+01 -1.5864157815e+01 4.7083412181e+01 0.0000000000e+00 0.0000e+00 -1.0000e+00
       21  1    1    2  505  502 -5.4847689753e+01 +2.4417423221e+02 -5.1532900887e+02 5.7288158648e+02 0.0000000000e+00 0.0000e+00 -1.0000e+00
<mgrwt>
<rscale>  4 0.26787754E+03</rscale>
<asrwt>0</asrwt>
<pdfrwt beam="1">  1       21 0.15254844E+00 0.30705887E+03</pdfrwt>
<pdfrwt beam="2">  1       21 0.99962826E-01 0.30705887E+03</pdfrwt>
<totfact> 0.20962748E+02</totfact>
</mgrwt>
</event>
<event>
 6      1 +2.5168241e+02 2.01939900e+02 7.54677100e-03 1.16820100e-01
       21 -1    0    0  501  502 +0.0000000000e+00 +0.0000000000e+00 +1.5424669108e+02 1.5424669108e+02 0.0000000000e+00 0.0000e+00 1.0000e+00
       21 -1    0    0  504  503 -0.0000000000e+00 -0.0000000000e+00 -8.4803513550e+02 8.4803513550e+02 0.0000000000e+00 0.0000e+00 1.0000e+00
        6  1    1    2  501    0 +3.1010547696e+00 +1.3648621104e+02 -1.0928211577e+02 2.4598716058e+02 1.7300000000e+02 0.0000e+00 1.0000e+00
       -6  1    1    2    0  503 -2.5541901418e+01 -4.1075478697e+01 -2.8146048908e+02 3.3389907246e+02 1.7300000000e+02 0.0000e+00 1.0000e+00
       21  1    1    2  504  505 -4.9007077625e+00 -1.0107624896e+02 -3.5188016333e+02 3.6614215051e+02 0.0000000000e+00 0.0000e+00 1.0000e+00
       21  1    1    2  505  502 +2.7341554411e+01 +5.6655166153e+00 +4.8834323750e+01 5.6253443026e+01 0.0000000000e+00 0.0000e+00 1.0000e+00
<mgrwt>
<rscale>  4 0.20193988E+03</rscale>
<asrwt>0</asrwt>
<pdfrwt beam="1">  1       21 0.23730261E-01 0.20193988E+03</pdfrwt>
<pdfrwt beam="2">  1       21 0.13046694E+00 0.20193988E+03</pdfrwt>
<totfact> 0.71139275E+03</totfact>
</mgrwt>
</event>
<event>
 6      1 +2.5168241e+02 2.35135600e+02 7.54677100e-03 1.16820100e-01
       21 -1    0    0  501  502 +0.0000000000e+00 +0.0000000000e+00 +1.6821054239e+02 1.6821054239e+02 0.0000000000e+00 0.0000e+00 1.0000e+00
       21 -1    0    0  504  503 -0.0000000000e+00 -0.0000000000e+00 -1.1354187316e+03 1.1354187316e+03 0.0000000000e+00 0.0000e+00 1.0000e+00
        6  1    1    2  501    0 +5.6514954767e+01 -1.2323954243e+02 -8.2364656232e+01 2.3472294632e+02 1.7300000000e+02 0.0000e+00 1.0000e+00
       -6  1    1    2    0  503 +2.2913765567e+01 +1.6559856374e+02 -8.9893278071e+02 9.3056814323e+02 1.7300000000e+02 0.0000e+00 1.0000e+00
       21  1    1    2  504  505 -2.0245259916e+01 +2.5010840007e+00 -4.1052254359e+01 4.5841177539e+01 0.0000000000e+00 0.0000e+00 -1.0000e+00
       21  1    1    2  505  502 -5.9183460417e+01 -4.4860105312e+01 +5.5141502083e+01 9.2497006911e+01 0.0000000000e+00 0.0000e+00 1.0000e+00
<mgrwt>
<rscale>  4 0.23513564E+03</rscale>
<asrwt>0</asrwt>
<pdfrwt beam="1">  1       21 0.25878545E-01 0.23513564E+03</pdfrwt>
<pdfrwt beam="2">  1       21 0.17467980E+00 0.23513564E+03</pdfrwt>
<totfact> 0.27026052E+03</totfact>
</mgrwt>
</event>
<event>
 6      1 +2.5168241e+02 1.89552700e+02 7.54677100e-03 1.16820100e-01
       21 -1    0    0  505  502 +0.0000000000e+00 +0.0000000000e+00 +6.9968305012e+01 6.9968305012e+01 0.0000000000e+00 0.0000e+00 -1.0000e+00
       21 -1    0    0  504  503 -0.0000000000e+00 -0.0000000000e+00 -2.7627899135e+03 2.7627899135e+03 0.0000000000e+00 0.0000e+00 -1.0000e+00
        6  1    1    2  501    0 -1.5209066190e+02 +2.1701704083e+01 -9.6864735530e+02 9.9589619556e+02 1.7300000000e+02 0.0000e+00 1.0000e+00
       -6  1    1    2    0  503 +2.5748574179e+01 +4.7061851127e+01 -1.2449832152e+03 1.2580898271e+03 1.7300000000e+02 0.0000e+00 -1.0000e+00
       21  1    1    2  504  502 +2.5303362487e+01 -1.8783776517e+01 -4.6395352441e+02 4.6502254056e+02 0.0000000000e+00 0.0000e+00 1.0000e+00
       21  1    1    2  505  501 +1.0103872523e+02 -4.9979778694e+01 -1.5237513644e+01 1.1374965537e+02 0.0000000000e+00 0.0000e+00 -1.0000e+00
<mgrwt>
<rscale>  4 0.18955266E+03</rscale>
<asrwt>0</asrwt>
<pdfrwt beam="1">  1       21 0.10764354E-01 0.18955266E+03</pdfrwt>
<pdfrwt beam="2">  1       21 0.42504462E+00 0.18955266E+03</pdfrwt>
<totfact> 0.43332580E+02</totfact>
</mgrwt>
</event>
<event>
 6      1 +2.5168241e+02 2.18452500e+02 7.54677100e-03 1.17132900e-01
       21 -1    0    0  503  502 +0.0000000000e+00 +0.0000000000e+00 +1.7352290045e+03 1.7352290045e+03 0.0000000000e+00 0.0000e+00 -1.0000e+00
       21 -1    0    0  504  503 -0.0000000000e+00 -0.0000000000e+00 -7.3830905430e+01 7.3830905430e+01 0.0000000000e+00 0.0000e+00 1.0000e+00
        6  1    1    2  501    0 +6.6341897089e+01 -7.3515765913e+01 +5.0027751418e+02 5.3852799959e+02 1.7300000000e+02 0.0000e+00 1.0000e+00
       -6  1    1    2    0  505 -7.7878635958e+01 +1.1876935736e+02 +2.2415179638e+02 3.1677163700e+02 1.7300000000e+02 0.0000e+00 1.0000e+00
       21  1    1    2  504  501 -7.2313498635e+00 +2.6138710992e+01 +1.9686240228e+01 3.3512276668e+01 0.0000000000e+00 0.0000e+00 1.0000e+00
       21  1    1    2  505  502 +1.8768088732e+01 -7.1392302437e+01 +9.1728254833e+02 9.2024799672e+02 0.0000000000e+00 0.0000e+00 -1.0000e+00
<mgrwt>
<rscale>  4 0.21845254E+03</rscale>
<asrwt>0</asrwt>
<pdfrwt beam="1">  1       21 0.26695828E+00 0.21845254E+03</pdfrwt>
<pdfrwt beam="2">  1       21 0.11358602E-01 0.21845254E+03</pdfrwt>
<totfact> 0.33333559E+03</totfact>
</mgrwt>
</event>
<event>
 6      1 +2.5168241e+02 1.88301800e+02 7.54677100e-03 1.11910500e-01
       21 -1    0    0  501  502 +0.0000000000e+00 +0.0000000000e+00 +4.2480292406e+02 4.2480292406e+02 0.0000000000e+00 0.0000e+00 -1.0000e+00
       21 -1    0    0  505  503 -0.0000000000e+00 -0.0000000000e+00 -1.3159916062e+03 1.3159916062e+03 0.0000000000e+00 0.0000e+00 -1.0000e+00
        6  1    1    2  501    0 +3.9455939001e+01 +6.1032950781e+01 +2.4301316999e+02 3.0702800034e+02 1.7300000000e+02 0.0000e+00 -1.0000e+00
       -6  1    1    2    0  504 -7.7364782599e+01 -3.7013806178e+01 +8.3708557687e+01 2.1045534934e+02 1.7300000000e+02 0.0000e+00 1.0000e+00
       21  1    1    2  504  503 +3.0023363981e+01 +1.5050657938e+01 -1.1819854121e+02 1.2287725515e+02 0.0000000000e+00 0.0000e+00 1.0000e+00
       21  1    1    2  505  502 +7.8854796167e+00 -3.9069802542e+01 -1.0997118686e+03 1.1004339254e+03 0.0000000000e+00 0.0000e+00 -1.0000e+00
<mgrwt>
<rscale>  4 0.18830181E+03</rscale>
<asrwt>0</asrwt>
<pdfrwt beam="1">  1       21 0.65354297E-01 0.18830181E+03</pdfrwt>
<pdfrwt beam="2">  1       21 0.20246025E+00 0.18830181E+03</pdfrwt>
<totfact> 0.28051521E+02</totfact>
</mgrwt>
</event>
<event>
 6      1 +2.5168241e+02 4.93764200e+02 7.54677100e-03 1.12068800e-01
       21 -1    0    0  504  502 +0.0000000000e+00 +0.0000000000e+00 +3.2884849825e+02 3.2884849825e+02 0.0000000000e+00 0.0000e+00 -1.0000e+00
       21 -1    0    0  502  503 -0.0000000000e+00 -0.0000000000e+00 -1.6833832107e+03 1.6833832107e+03 0.0000000000e+00 0.0000e+00 -1.0000e+00
        6  1    1    2  501    0 +1.4997846390e+02 +3.4951630286e+02 -3.3187043523e+02 5.3359363881e+02 1.7300000000e+02 0.0000e+00 -1.0000e+00
       -6  1    1    2    0  505 -2.2855194205e+02 -4.7769783021e+02 -1.3261461017e+02 5.7266643173e+02 1.7300000000e+02 0.0000e+00 -1.0000e+00
       21  1    1    2  504  501 +2.5551098808e+01 +9.0565542035e+01 -3.6593339991e+02 3.7783889321e+02 0.0000000000e+00 0.0000e+00 -1.0000e+00
       21  1    1    2  505  503 +5.3022379341e+01 +3.7615985309e+01 -5.2411626712e+02 5.2813274517e+02 0.0000000000e+00 0.0000e+00 -1.0000e+00
<mgrwt>
<rscale>  4 0.49376416E+03</rscale>
<asrwt>0</asrwt>
<pdfrwt beam="1">  1       21 0.50592077E-01 0.49376416E+03</pdfrwt>
<pdfrwt beam="2">  1       21 0.25898203E+00 0.49376416E+03</pdfrwt>
<totfact> 0.16917339E+02</totfact>
</mgrwt>
</event>
<event>
 6      1 +2.5168241e+02 2.48500500e+02 7.54677100e-03 1.16820100e-01
       21 -1    0    0  501  502 +0.0000000000e+00 +0.0000000000e+00 +4.1087838237e+02 4.1087838237e+02 0.0000000000e+00 0.0000e+00 1.0000e+00
       21 -1    0    0  504  503 -0.0000000000e+00 -0.0000000000e+00 -1.6905267895e+03 1.6905267895e+03 0.0000000000e+00 0.0000e+00 1.0000e+00
        6  1    1    2  501    0 -1.8110453182e+02 +8.2918040325e+01 +2.0603121348e+02 3.3474186142e+02 1.7300000000e+02 0.0000e+00 1.0000e+00
       -6  1    1    2    0  503 +1.5894234609e+02 -3.9999225367e+01 -1.3430778659e+02 2.7355107192e+02 1.7300000000e+02 0.0000e+00 1.0000e+00
       21  1    1    2  504  505 +1.9249098794e+01 +1.7235971530e+01 -1.4093073886e+03 1.4095442250e+03 0.0000000000e+00 0.0000e+00 1.0000e+00
       21  1    1    2  505  502 +2.9130869302e+00 -6.0154786488e+01 +5.7935554571e+01 8.3568013596e+01 0.0000000000e+00 0.0000e+00 -1.0000e+00
<mgrwt>
<rscale>  4 0.24850048E+03</rscale>
<asrwt>0</asrwt>
<pdfrwt beam="1">  1       21 0.63212060E-01 0.24850048E+03</pdfrwt>
<pdfrwt beam="2">  1       21 0.26008104E+00 0.24850048E+03</pdfrwt>
<totfact> 0.12468465E+02</totfact>
</mgrwt>
</event>
<event>
 6      1 +2.5168241e+02 1.94648500e+02 7.54677100e-03 1.16820100e-01
       21 -1    0    0  504  502 +0.0000000000e+00 +0.0000000000e+00 +1.1992770807e+03 1.1992770807e+03 0.0000000000e+00 0.0000e+00 1.0000e+00
       21 -1    0    0  501  503 -0.0000000000e+00 -0.0000000000e+00 -4.2283867014e+02 4.2283867014e+02 0.0000000000e+00 0.0000e+00 -1.0000e+00
        6  1    1    2  501    0 +4.1878633860e+01 -9.7177485183e+01 -1.2627062102e+02 2.3889443973e+02 1.7300000000e+02 0.0000e+00 -1.0000e+00
       -6  1    1    2    0  505 -3.9950538831e+01 +9.9131112468e+01 +4.2329391236e+02 4.6960596169e+02 1.7300000000e+02 0.0000e+00 1.0000e+00
       21  1    1    2  504  503 -6.8300981609e+00 +2.0303328398e+01 -2.1638467576e+02 2.1744241373e+02 0.0000000000e+00 0.0000e+00 -1.0000e+00
       21  1    1    2  505  502 +4.9020031319e+00 -2.2256955682e+01 +6.9579979499e+02 6.9617293571e+02 0.0000000000e+00 0.0000e+00 1.0000e+00
<mgrwt>
<rscale>  4 0.19464848E+03</rscale>
<asrwt>0</asrwt>
<pdfrwt beam="1">  1       21 0.18450416E+00 0.19464848E+03</pdfrwt>
<pdfrwt beam="2">  1       21 0.65052104E-01 0.19464848E+03</pdfrwt>
<totfact> 0.36821372E+02</totfact>
</mgrwt>
</event>
<event>
 6      1 +2.5168241e+02 2.30465900e+02 7.54677100e-03 1.03924000e-01
       21 -1    0    0  504  502 +0.0000000000e+00 +0.0000000000e+00 +2.0492867264e+03 2.0492867264e+03 0.0000000000e+00 0.0000e+00 -1.0000e+00
       21 -1    0    0  501  503 -0.0000000000e+00 -0.0000000000e+00 -1.3099718008e+03 1.3099718008e+03 0.0000000000e+00 0.0000e+00 1.0000e+00
        6  1    1    2  501    0 +8.9561978465e+01 +3.7698894761e+01 -5.9935903884e+00 1.9851316777e+02 1.7300000000e+02 0.0000e+00 -1.0000e+00
       -6  1    1    2    0  505 -7.7621130770e+01 -1.4142163620e+02 -1.1893281831e+03 1.2126234561e+03 1.7300000000e+02 0.0000e+00 1.0000e+00
       21  1    1    2  504  503 -3.2301939293e+01 +1.1267238067e+02 +1.9146056283e+03 1.9181900825e+03 0.0000000000e+00 0.0000e+00 -1.0000e+00
       21  1    1    2  505  502 +2.0361091598e+01 -8.9496392302e+00 +2.0031070764e+01 2.9931820683e+01 0.0000000000e+00 0.0000e+00 -1.0000e+00
<mgrwt>
<rscale>  4 0.23046589E+03</rscale>
<asrwt>0</asrwt>
<pdfrwt beam="1">  1       21 0.31527488E+00 0.23046589E+03</pdfrwt>
<pdfrwt beam="2">  1       21 0.20153412E+00 0.23046589E+03</pdfrwt>
<totfact> 0.33826324E+00</totfact>
</mgrwt>
</event>
<event>
 6      1 +2.5168241e+02 1.83621400e+02 7.54677100e-03 1.17132900e-01
       21 -1    0    0  505  502 +0.0000000000e+00 +0.0000000000e+00 +7.0625370607e+02 7.0625370607e+02 0.0000000000e+00 0.0000e+00 1.0000e+00
       21 -1    0    0  504  503 -0.0000000000e+00 -0.0000000000e+00 -1.2216417150e+02 1.2216417150e+02 0.0000000000e+00 0.0000e+00 1.0000e+00
        6  1    1    2  501    0 +1.2206884916e+01 -8.1717815354e+01 +4.5010796196e+01 1.9693090453e+02 1.7300000000e+02 0.0000e+00 1.0000e+00
       -6  1    1    2    0  502 -5.3066707779e+01 -5.7443868164e+00 +2.7520343513e+02 3.2941615650e+02 1.7300000000e+02 0.0000e+00 1.0000e+00
       21  1    1    2  504  501 +2.1336762095e+01 +7.7645720378e+01 +6.9200921656e+01 1.0617383325e+02 0.0000000000e+00 0.0000e+00 1.0000e+00
       21  1    1    2  505  503 +1.9523060768e+01 +9.8164817924e+00 +1.9467438158e+02 1.9589698329e+02 0.0000000000e+00 0.0000e+00 1.0000e+00
<mgrwt>
<rscale>  4 0.18362138E+03</rscale>
<asrwt>0</asrwt>
<pdfrwt beam="1">  1       21 0.10865441E+00 0.18362138E+03</pdfrwt>
<pdfrwt beam="2">  1       21 0.18794488E-01 0.18362138E+03</pdfrwt>
<totfact> 0.17538721E+04</totfact>
</mgrwt>
</event>
<event>
 6      1 +2.5168241e+02 3.59044200e+02 7.54677100e-03 1.06249800e-01
       21 -1    0    0  503  502 +0.0000000000e+00 +0.0000000000e+00 +1.9700977629e+03 1.9700977629e+03 0.0000000000e+00 0.0000e+00 -1.0000e+00
       21 -1    0    0  501  503 -0.0000000000e+00 -0.0000000000e+00 -1.6124333929e+02 1.6124333929e+02 0.0000000000e+00 0.0000e+00 -1.0000e+00
        6  1    1    2  501    0 -2.7700624067e+02 +8.5809217996e+01 +1.1523004082e+03 1.2007584728e+03 1.7300000000e+02 0.0000e+00 -1.0000e+00
       -6  1    1    2    0  504 -1.4144933104e+02 -3.8885682335e+01 +3.0343910736e+02 3.7884601280e+02 1.7300000000e+02 0.0000e+00 1.0000e+00
       21  1    1    2  504  505 +3.8510702174e+02 -4.2628750989e+01 +3.4053025498e+02 5.1583474404e+02 0.0000000000e+00 0.0000e+00 -1.0000e+00
       21  1    1    2  505  502 +3.3348549964e+01 -4.2947846728e+00 +1.2584653073e+01 3.5901872556e+01 0.0000000000e+00 0.0000e+00 -1.0000e+00
<mgrwt>
<rscale>  4 0.32009807E+03</rscale>
<asrwt>0</asrwt>
<pdfrwt beam="1">  1       21 0.30309195E+00 0.35904420E+03</pdfrwt>
<pdfrwt beam="2">  1       21 0.24806669E-01 0.35904420E+03</pdfrwt>
<totfact> 0.42407294E+02</totfact>
</mgrwt>
</event>
<event>
 6      1 +2.5168241e+02 1.89436900e+02 7.54677100e-03 1.12068800e-01
       21 -1    0    0  504  502 +0.0000000000e+00 +0.0000000000e+00 +2.6983178514e+02 2.6983178514e+02 0.0000000000e+00 0.0000e+00 -1.0000e+00
       21 -1    0    0  502  503 -0.0000000000e+00 -0.0000000000e+00 -5.4935202690e+02 5.4935202690e+02 0.0000000000e+00 0.0000e+00 -1.0000e+00
        6  1    1    2  501    0 +8.3789998275e+01 -1.1604714935e+00 +1.6990999359e+02 2.5655509433e+02 1.7300000000e+02 0.0000e+00 -1.0000e+00
       -6  1    1    2    0  505 -2.6858562006e+01 +1.0359146474e+02 -2.1288799734e+02 2.9445351642e+02 1.7300000000e+02 0.0000e+00 -1.0000e+00
       21  1    1    2  504  501 -3.3876343166e+01 -1.7628869777e+01 -8.0161011546e+01 8.8792856965e+01 0.0000000000e+00 0.0000e+00 -1.0000e+00
       21  1    1    2  505  503 -2.3055093103e+01 -8.4802123472e+01 -1.5638122646e+02 1.7938234432e+02 0.0000000000e+00 0.0000e+00 -1.0000e+00
<mgrwt>
<rscale>  4 0.18943685E+03</rscale>
<asrwt>0</asrwt>
<pdfrwt beam="1">  1       21 0.41512583E-01 0.18943685E+03</pdfrwt>
<pdfrwt beam="2">  1       21 0.84515696E-01 0.18943685E+03</pdfrwt>
<totfact> 0.67993573E+03</totfact>
</mgrwt>
</event>
<event>
 6      1 +2.5168241e+02 2.77798500e+02 7.54677100e-03 1.06249800e-01
       21 -1    0    0  505  502 +0.0000000000e+00 +0.0000000000e+00 +9.2638461596e+02 9.2638461596e+02 0.0000000000e+00 0.0000e+00 -1.0000e+00
       21 -1    0    0  504  503 -0.0000000000e+00 -0.0000000000e+00 -2.0472796532e+02 2.0472796532e+02 0.0000000000e+00 0.0000e+00 1.0000e+00
        6  1    1    2  501    0 -1.3429145466e+01 -2.0933638039e+02 -7.4838250545e+00 2.7200564285e+02 1.7300000000e+02 0.0000e+00 1.0000e+00
       -6  1    1    2    0  502 +1.0896010280e+01 -4.0698941797e+01 +1.9463705424e+02 2.6379482517e+02 1.7300000000e+02 0.0000e+00 -1.0000e+00
       21  1    1    2  504  501 -3.1515880251e+01 +1.8191110299e+02 +4.0455718705e+02 4.4469249790e+02 0.0000000000e+00 0.0000e+00 1.0000e+00
       21  1    1    2  505  503 +3.4049015437e+01 +6.8124219197e+01 +1.2994623441e+02 1.5061961536e+02 0.0000000000e+00 0.0000e+00 1.0000e+00
<mgrwt>
<rscale>  4 0.24856326E+03</rscale>
<asrwt>0</asrwt>
<pdfrwt beam="1">  1       21 0.14252071E+00 0.27779854E+03</pdfrwt>
<pdfrwt beam="2">  1       21 0.31496611E-01 0.27779854E+03</pdfrwt>
<totfact> 0.31043728E+03</totfact>
</mgrwt>
</event>
<event>
 6      1 +2.5168241e+02 2.90202100e+02 7.54677100e-03 1.16820100e-01
       21 -1    0    0  504  502 +0.0000000000e+00 +0.0000000000e+00 +6.0101673861e+02 6.0101673861e+02 0.0000000000e+00 0.0000e+00 1.0000e+00
       21 -1    0    0  501  503 -0.0000000000e+00 -0.0000000000e+00 -2.6467731000e+02 2.6467731000e+02 0.0000000000e+00 0.0000e+00 -1.0000e+00
        6  1    1    2  501    0 +2.0620554755e+02 +4.0459092431e+01 -5.9966105543e+01 2.7871598414e+02 1.7300000000e+02 0.0000e+00 -1.0000e+00
       -6  1    1    2    0  505 -2.2336364150e+02 -5.0144199387e+01 +3.3567598798e+02 4.4160290531e+02 1.7300000000e+02 0.0000e+00 1.0000e+00
       21  1    1    2  504  503 +3.2021479827e+01 +2.3074212575e+01 -3.1874702551e+01 5.0732544968e+01 0.0000000000e+00 0.0000e+00 -1.0000e+00
       21  1    1    2  505  502 -1.4863385877e+01 -1.3389105620e+01 +9.2504248726e+01 9.4642614194e+01 0.0000000000e+00 0.0000e+00 1.0000e+00
<mgrwt>
<rscale>  4 0.29020207E+03</rscale>
<asrwt>0</asrwt>
<pdfrwt beam="1">  1       21 0.92464114E-01 0.29020207E+03</pdfrwt>
<pdfrwt beam="2">  1       21 0.40719586E-01 0.29020207E+03</pdfrwt>
<totfact> 0.53835779E+03</totfact>
</mgrwt>
</event>
<event>
 6      1 +2.5168241e+02 2.35039100e+02 7.54677100e-03 1.16820100e-01
       21 -1    0    0  501  502 +0.0000000000e+00 +0.0000000000e+00 +1.4891369038e+02 1.4891369038e+02 0.0000000000e+00 0.0000e+00 1.0000e+00
       21 -1    0    0  504  503 -0.0000000000e+00 -0.0000000000e+00 -9.8649358629e+02 9.8649358629e+02 0.0000000000e+00 0.0000e+00 -1.0000e+00
        6  1    1    2  501    0 -2.8361714334e+01 -1.4714444029e+02 -7.6264760085e+00 2.2900444599e+02 1.7300000000e+02 0.0000e+00 1.0000e+00
       -6  1    1    2    0  503 +5.9982446145e+01 +1.3763729975e+02 -3.9799125104e+02 4.5920361065e+02 1.7300000000e+02 0.0000e+00 1.0000e+00
       21  1    1    2  504  505 -8.2765690817e+00 +2.2436352662e+01 -4.1476195781e+02 4.1545080716e+02 0.0000000000e+00 0.0000e+00 -1.0000e+00
       21  1    1    2  505  502 -2.3344162729e+01 -1.2929212125e+01 -1.7200211050e+01 3.1748412872e+01 0.0000000000e+00 0.0000e+00 -1.0000e+00
<mgrwt>
<rscale>  4 0.23503912E+03</rscale>
<asrwt>0</asrwt>
<pdfrwt beam="1">  1       21 0.22909798E-01 0.23503912E+03</pdfrwt>
<pdfrwt beam="2">  1       21 0.15176825E+00 0.23503912E+03</pdfrwt>
<totfact> 0.50120310E+03</totfact>
</mgrwt>
</event>
<event>
 6      1 +2.5168241e+02 2.29895100e+02 7.54677100e-03 1.12989000e-01
       21 -1    0    0  503  502 +0.0000000000e+00 +0.0000000000e+00 +2.0443663428e+03 2.0443663428e+03 0.0000000000e+00 0.0000e+00 -1.0000e+00
       21 -1    0    0  504  503 -0.0000000000e+00 -0.0000000000e+00 -6.3992461236e+01 6.3992461236e+01 0.0000000000e+00 0.0000e+00 1.0000e+00
        6  1    1    2  501    0 +1.1214411899e+02 +8.4966462385e+01 +6.7149717845e+02 7.0755428330e+02 1.7300000000e+02 0.0000e+00 1.0000e+00
       -6  1    1    2    0  502 -1.3538174894e+02 -8.1351433490e+01 +1.2969308578e+03 1.3179168880e+03 1.7300000000e+02 0.0000e+00 -1.0000e+00
       21  1    1    2  504  505 +3.0028334814e+01 -2.2438820413e+01 -2.2012790077e+01 4.3471421419e+01 0.0000000000e+00 0.0000e+00 1.0000e+00
       21  1    1    2  505  501 -6.7907048586e+00 +1.8823791518e+01 +3.3958635429e+01 3.9416211383e+01 0.0000000000e+00 0.0000e+00 -1.0000e+00
<mgrwt>
<rscale>  4 0.22989507E+03</rscale>
<asrwt>0</asrwt>
<pdfrwt beam="1">  1       21 0.31451785E+00 0.22989507E+03</pdfrwt>
<pdfrwt beam="2">  1       21 0.98449956E-02 0.22989507E+03</pdfrwt>
<totfact> 0.22463632E+03</totfact>
</mgrwt>
</event>
<event>
 6      1 +2.5168241e+02 2.40785400e+02 7.54677100e-03 1.03924000e-01
       21 -1    0    0  504  502 +0.0000000000e+00 +0.0000000000e+00 +7.8414177907e+02 7.8414177907e+02 0.0000000000e+00 0.0000e+00 1.0000e+00
       21 -1    0    0  501  503 -0.0000000000e+00 -0.0000000000e+00 -1.0073119151e+03 1.0073119151e+03 0.0000000000e+00 0.0000e+00 -1.0000e+00
        6  1    1    2  501    0 -2.1519125331e+01 +1.8966056061e+02 -7.6551916111e+02 8.0770216480e+02 1.7300000000e+02 0.0000e+00 -1.0000e+00
       -6  1    1    2    0  505 -5.1929300786e+01 -1.1187822159e+02 -1.6064312451e+02 2.6636178817e+02 1.7300000000e+02 0.0000e+00 1.0000e+00
       21  1    1    2  504  503 +5.0215522360e+01 -5.9907128433e+01 +6.6411516525e+02 6.6869979471e+02 0.0000000000e+00 0.0000e+00 1.0000e+00
       21  1    1    2  505  502 +2.3232903757e+01 -1.7875210588e+01 +3.8876984374e+01 4.8689946442e+01 0.0000000000e+00 0.0000e+00 1.0000e+00
<mgrwt>
<rscale>  4 0.24078544E+03</rscale>
<asrwt>0</asrwt>
<pdfrwt beam="1">  1       21 0.12063720E+00 0.24078544E+03</pdfrwt>
<pdfrwt beam="2">  1       21 0.15497106E+00 0.24078544E+03</pdfrwt>
<totfact> 0.13479348E+02</totfact>
</mgrwt>
</event>
<event>
 6      1 +2.5168241e+02 2.46931600e+02 7.54677100e-03 1.07064900e-01
       21 -1    0    0  505  502 +0.0000000000e+00 +0.0000000000e+00 +2.7943321743e+02 2.7943321743e+02 0.0000000000e+00 0.0000e+00 -1.0000e+00
       21 -1    0    0  501  503 -0.0000000000e+00 -0.0000000000e+00 -1.7101416674e+03 1.7101416674e+03 0.0000000000e+00 0.0000e+00 1.0000e+00
        6  1    1    2  501    0 +2.1698103608e+01 -1.7984551123e+02 -1.4933466428e+03 1.5142088401e+03 1.7300000000e+02 0.0000e+00 1.0000e+00
       -6  1    1    2    0  502 +6.2138505316e-01 +1.4245837866e+02 -9.8391851394e+01 2.4475443242e+02 1.7300000000e+02 0.0000e+00 -1.0000e+00
       21  1    1    2  504  503 +2.6536165371e+01 -5.3174982328e+01 +3.9444421701e+01 7.1327478727e+01 0.0000000000e+00 0.0000e+00 1.0000e+00
       21  1    1    2  505  504 -4.8855654032e+01 +9.0562114898e+01 +1.2158562261e+02 1.5928413358e+02 0.0000000000e+00 0.0000e+00 -1.0000e+00
<mgrwt>
<rscale>  4 0.24693157E+03</rscale>
<asrwt>0</asrwt>
<pdfrwt beam="1">  1       21 0.42989725E-01 0.24693157E+03</pdfrwt>
<pdfrwt beam="2">  1       21 0.26309872E+00 0.24693157E+03</pdfrwt>
<totfact> 0.27078238E+02</totfact>
</mgrwt>
</event>
<event>
 6      1 +2.5168241e+02 2.06577000e+02 7.54677100e-03 1.04003000e-01
       21 -1    0    0  504  502 +0.0000000000e+00 +0.0000000000e+00 +4.5844412915e+02 4.5844412915e+02 0.0000000000e+00 0.0000e+00 -1.0000e+00
       21 -1    0    0  505  503 -0.0000000000e+00 -0.0000000000e+00 -3.8198732664e+02 3.8198732664e+02 0.0000000000e+00 0.0000e+00 -1.0000e+00
        6  1    1    2  501    0 +2.3423732019e+01 +1.4438790325e+02 -1.0463388362e+01 2.2679290183e+02 1.7300000000e+02 0.0000e+00 -1.0000e+00
       -6  1    1    2    0  503 -1.3132347206e+02 -2.8348492307e+01 -1.2992069926e+02 2.5467210178e+02 1.7300000000e+02 0.0000e+00 1.0000e+00
       21  1    1    2  504  501 -8.9085759603e+00 +3.5565054373e+01 -2.9471423930e+01 4.7040415035e+01 0.0000000000e+00 0.0000e+00 1.0000e+00
       21  1    1    2  505  502 +1.1680831600e+02 -1.5160446531e+02 +2.4631231406e+02 3.1192603714e+02 0.0000000000e+00 0.0000e+00 -1.0000e+00
<mgrwt>
<rscale>  4 0.20657700E+03</rscale>
<asrwt>0</asrwt>
<pdfrwt beam="1">  1       21 0.70529867E-01 0.20657700E+03</pdfrwt>
<pdfrwt beam="2">  1       21 0.58767281E-01 0.20657700E+03</pdfrwt>
<totfact> 0.48838384E+03</totfact>
</mgrwt>
</event>
<event>
 6      1 +2.5168241e+02 2.23652500e+02 7.54677100e-03 1.11671100e-01
       21 -1    0    0  503  502 +0.0000000000e+00 +0.0000000000e+00 +1.5890101921e+02 1.5890101921e+02 0.0000000000e+00 0.0000e+00 1.0000e+00
       21 -1    0    0  501  503 -0.0000000000e+00 -0.0000000000e+00 -1.6948364922e+03 1.6948364922e+03 0.0000000000e+00 0.0000e+00 1.0000e+00
        6  1    1    2  501    0 -5.3186282568e+01 +3.4180666042e+01 -2.5192260383e+02 3.1207546669e+02 1.7300000000e+02 0.0000e+00 1.0000e+00
       -6  1    1    2    0  504 -4.3554137717e+01 +1.2807421915e+02 -1.2638421192e+03 1.2827805232e+03 1.7300000000e+02 0.0000e+00 1.0000e+00
       21  1    1    2  504  505 +1.2803132698e+02 -1.8059373551e+02 -1.1967654429e+01 2.2169651045e+02 0.0000000000e+00 0.0000e+00 1.0000e+00
       21  1    1    2  505  502 -3.1290906700e+01 +1.8338850318e+01 -8.2030955910e+00 3.7185011098e+01 0.0000000000e+00 0.0000e+00 -1.0000e+00
<mgrwt>
<rscale>  4 0.21384143E+03</rscale>
<asrwt>0</asrwt>
<pdfrwt beam="1">  1       21 0.24446310E-01 0.22365254E+03</pdfrwt>
<pdfrwt beam="2">  1       21 0.26074409E+00 0.22365254E+03</pdfrwt>
<totfact> 0.87625346E+02</totfact>
</mgrwt>
</event>
<event>
 6      1 +2.5168241e+02 1.75716200e+02 7.54677100e-03 9.87464100e-02
       21 -1    0    0  503  502 +0.0000000000e+00 +0.0000000000e+00 +6.8322235324e+02 6.8322235324e+02 0.0000000000e+00 0.0000e+00 -1.0000e+00
       21 -1    0    0  505  503 -0.0000000000e+00 -0.0000000000e+00 -6.2991926703e+02 6.2991926703e+02 0.0000000000e+00 0.0000e+00 -1.0000e+00
        6  1    1    2  501    0 -2.5238820515e+01 -2.4974361398e+01 +5.2821601781e+02 5.5695769880e+02 1.7300000000e+02 0.0000e+00 -1.0000e+00
       -6  1    1    2    0  504 +2.9047376621e+01 -2.4564351453e+01 +3.8883563983e+01 1.8135073476e+02 1.7300000000e+02 0.0000e+00 -1.0000e+00
       21  1    1    2  504  502 +2.9163402440e+01 +5.9779704718e+01 -7.0216781955e+00 6.6883638528e+01 0.0000000000e+00 0.0000e+00 -1.0000e+00
       21  1    1    2  505  501 -3.2971958547e+01 -1.0240991867e+01 -5.0677481738e+02 5.0794954818e+02 0.0000000000e+00 0.0000e+00 -1.0000e+00
<mgrwt>
<rscale>  4 0.17571617E+03</rscale>
<asrwt>0</asrwt>
<pdfrwt beam="1">  1       21 0.10511113E+00 0.17571617E+03</pdfrwt>
<pdfrwt beam="2">  1       21 0.96910656E-01 0.17571617E+03</pdfrwt>
<totfact> 0.65659275E+02</totfact>
</mgrwt>
</event>
<event>
 6      1 +2.5168241e+02 2.15670100e+02 7.54677100e-03 1.07064900e-01
       21 -1    0    0  505  502 +0.0000000000e+00 +0.0000000000e+00 +1.5385041983e+02 1.5385041983e+02 0.0000000000e+00 0.0000e+00 -1.0000e+00
       21 -1    0    0  504  503 -0.0000000000e+00 -0.0000000000e+00 -5.5015706119e+02 5.5015706119e+02 0.0000000000e+00 0.0000e+00 -1.0000e+00
        6  1    1    2  501    0 +3.0047059757e+01 +1.3359702834e+02 -1.4689588231e+02 2.6506299632e+02 1.7300000000e+02 0.0000e+00 -1.0000e+00
       -6  1    1    2    0  503 -5.2439528188e+01 -1.1321917715e+02 -2.6670149267e+02 3.4150720693e+02 1.7300000000e+02 0.0000e+00 -1.0000e+00
       21  1    1    2  504  502 +5.7178344044e+01 -1.9706892027e+01 +5.6199907551e+00 6.0739681568e+01 0.0000000000e+00 0.0000e+00 -1.0000e+00
       21  1    1    2  505  501 -3.4785875612e+01 -6.7095915467e-01 +1.1670742865e+01 3.6697596206e+01 0.0000000000e+00 0.0000e+00 1.0000e+00
<mgrwt>
<rscale>  4 0.21567008E+03</rscale>
<asrwt>0</asrwt>
<pdfrwt beam="1">  1       21 0.23669295E-01 0.21567008E+03</pdfrwt>
<pdfrwt beam="2">  1       21 0.84639548E-01 0.21567008E+03</pdfrwt>
<totfact> 0.20060343E+04</totfact>
</mgrwt>
</event>
<event>
 6      1 +2.5168241e+02 2.54755900e+02 7.54677100e-03 1.06249800e-01
       21 -1    0    0  503  502 +0.0000000000e+00 +0.0000000000e+00 +3.0984379236e+02 3.0984379236e+02 0.0000000000e+00 0.0000e+00 -1.0000e+00
       21 -1    0    0  501  503 -0.0000000000e+00 -0.0000000000e+00 -2.6265553895e+02 2.6265553895e+02 0.0000000000e+00 0.0000e+00 1.0000e+00
        6  1    1    2  501    0 +3.2827236507e+01 +2.0780450446e+02 +5.8227748193e+01 2.7853152459e+02 1.7300000000e+02 0.0000e+00 1.0000e+00
       -6  1    1    2    0  505 -4.0702316358e+01 -1.6722759324e+02 -2.7226899576e+01 2.4554439631e+02 1.7300000000e+02 0.0000e+00 -1.0000e+00
       21  1    1    2  504  502 -3.1471059561e+00 -2.0396111413e+01 +1.4783098045e+01 2.5385933595e+01 0.0000000000e+00 0.0000e+00 -1.0000e+00
       21  1    1    2  505  504 +1.1022185808e+01 -2.0180799811e+01 +1.4043067469e+00 2.3037476824e+01 0.0000000000e+00 0.0000e+00 -1.0000e+00
<mgrwt>
<rscale>  4 0.25475592E+03</rscale>
<asrwt>0</asrwt>
<pdfrwt beam="1">  1       21 0.47668276E-01 0.25475592E+03</pdfrwt>
<pdfrwt beam="2">  1       21 0.40408545E-01 0.25475592E+03</pdfrwt>
<totfact> 0.24043461E+04</totfact>
</mgrwt>
</event>
<event>
 6      1 +2.5168241e+02 2.14427200e+02 7.54677100e-03 1.16820100e-01
       21 -1    0    0  501  502 +0.0000000000e+00 +0.0000000000e+00 +5.6644949074e+02 5.6644949074e+02 0.0000000000e+00 0.0000e+00 -1.0000e+00
       21 -1    0    0  504  503 -0.0000000000e+00 -0.0000000000e+00 -7.7285074629e+02 7.7285074629e+02 0.0000000000e+00 0.0000e+00 -1.0000e+00
        6  1    1    2  501    0 -1.2952231652e+02 +9.2208199456e+01 +1.6323409642e+02 2.8609920090e+02 1.7300000000e+02 0.0000e+00 -1.0000e+00
       -6  1    1    2    0  503 +9.1341529590e+01 -1.3589798313e+02 -3.6834693683e+02 4.3865704453e+02 1.7300000000e+02 0.0000e+00 -1.0000e+00
       21  1    1    2  504  505 -4.1873826474e+01 +2.9502809919e+01 -3.0031999897e+02 3.0465707758e+02 0.0000000000e+00 0.0000e+00 -1.0000e+00
       21  1    1    2  505  502 +8.0054613408e+01 +1.4186973751e+01 +2.9903158384e+02 3.0988691402e+02 0.0000000000e+00 0.0000e+00 -1.0000e+00
<mgrwt>
<rscale>  4 0.21442723E+03</rscale>
<asrwt>0</asrwt>
<pdfrwt beam="1">  1       21 0.87146076E-01 0.21442723E+03</pdfrwt>
<pdfrwt beam="2">  1       21 0.11890011E+00 0.21442723E+03</pdfrwt>
<totfact> 0.59756898E+02</totfact>
</mgrwt>
</event>
<event>
 6      1 +2.5168241e+02 2.14358200e+02 7.54677100e-03 1.16820100e-01
       21 -1    0    0  505  502 +0.0000000000e+00 +0.0000000000e+00 +4.1018654219e+02 4.1018654219e+02 0.0000000000e+00 0.0000e+00 1.0000e+00
       21 -1    0    0  501  503 -0.0000000000e+00 -0.0000000000e+00 -6.7222619053e+02 6.7222619053e+02 0.0000000000e+00 0.0000e+00 -1.0000e+00
        6  1    1    2  501    0 +8.2941286345e+01 +1.2213392297e+02 +1.4573122546e+02 2.7011579405e+02 1.7300000000e+02 0.0000e+00 1.0000e+00
       -6  1    1    2    0  504 +3.9340243623e+01 -1.2968584703e+02 -2.6404532938e+01 2.2134198212e+02 1.7300000000e+02 0.0000e+00 -1.0000e+00
       21  1    1    2  504  502 -5.0511594962e+01 +5.3904654630e+00 -4.7233750899e+02 4.7506125999e+02 0.0000000000e+00 0.0000e+00 -1.0000e+00
       21  1    1    2  505  503 -7.1769935006e+01 +2.1614585894e+00 +9.0971168125e+01 1.1589369657e+02 0.0000000000e+00 0.0000e+00 1.0000e+00
<mgrwt>
<rscale>  4 0.21435821E+03</rscale>
<asrwt>0</asrwt>
<pdfrwt beam="1">  1       21 0.63105623E-01 0.21435821E+03</pdfrwt>
<pdfrwt beam="2">  1       21 0.10341941E+00 0.21435821E+03</pdfrwt>
<totfact> 0.17265746E+03</totfact>
</mgrwt>
</event>
<event>
 6      1 +2.5168241e+02 1.92936700e+02 7.54677100e-03 1.17132900e-01
       21 -1    0    0  503  502 +0.0000000000e+00 +0.0000000000e+00 +5.8131657587e+02 5.8131657587e+02 0.0000000000e+00 0.0000e+00 -1.0000e+00
       21 -1    0    0  504  503 -0.0000000000e+00 -0.0000000000e+00 -1.4798048506e+03 1.4798048506e+03 0.0000000000e+00 0.0000e+00 1.0000e+00
        6  1    1    2  501    0 +7.6404406380e+00 -7.7571788491e+01 +1.5176939768e+00 1.8975526896e+02 1.7300000000e+02 0.0000e+00 1.0000e+00
       -6  1    1    2    0  505 +4.4939008771e+01 +6.6167614153e+01 +4.0168450926e+02 4.4460894351e+02 1.7300000000e+02 0.0000e+00 -1.0000e+00
       21  1    1    2  504  501 -4.5319936703e+01 -7.5540992156e+00 -1.3621786771e+03 1.3629533042e+03 0.0000000000e+00 0.0000e+00 1.0000e+00
       21  1    1    2  505  502 -7.2595127061e+00 +1.8958273554e+01 +6.0488199180e+01 6.3803909762e+01 0.0000000000e+00 0.0000e+00 -1.0000e+00
<mgrwt>
<rscale>  4 0.19293670E+03</rscale>
<asrwt>0</asrwt>
<pdfrwt beam="1">  1       21 0.89433320E-01 0.19293670E+03</pdfrwt>
<pdfrwt beam="2">  1       21 0.22766228E+00 0.19293670E+03</pdfrwt>
<totfact> 0.96273981E+01</totfact>
</mgrwt>
</event>
<event>
 6      1 +2.5168241e+02 2.01235700e+02 7.54677100e-03 1.11910500e-01
       21 -1    0    0  501  502 +0.0000000000e+00 +0.0000000000e+00 +2.2283417777e+02 2.2283417777e+02 0.0000000000e+00 0.0000e+00 -1.0000e+00
       21 -1    0    0  504  503 -0.0000000000e+00 -0.0000000000e+00 -9.1666008754e+02 9.1666008754e+02 0.0000000000e+00 0.0000e+00 -1.0000e+00
        6  1    1    2  501    0 -5.2320593490e+01 -8.9799418272e+01 +1.4841734133e+02 2.5051564269e+02 1.7300000000e+02 0.0000e+00 -1.0000e+00
       -6  1    1    2    0  503 +4.1097957960e+01 +7.5835820529e+01 -7.3334540142e+02 7.5839606513e+02 1.7300000000e+02 0.0000e+00 -1.0000e+00
       21  1    1    2  504  505 +2.5092185493e+01 -2.1836705026e+01 -4.3688457490e+01 5.4910297550e+01 0.0000000000e+00 0.0000e+00 -1.0000e+00
       21  1    1    2  505  502 -1.3869549963e+01 +3.5800302770e+01 -6.5209392185e+01 7.5672259935e+01 0.0000000000e+00 0.0000e+00 -1.0000e+00
<mgrwt>
<rscale>  4 0.20123574E+03</rscale>
<asrwt>0</asrwt>
<pdfrwt beam="1">  1       21 0.34282182E-01 0.20123574E+03</pdfrwt>
<pdfrwt beam="2">  1       21 0.14102462E+00 0.20123574E+03</pdfrwt>
<totfact> 0.28570668E+03</totfact>
</mgrwt>
</event>
<event>
 6      1 +2.5168241e+02 2.31137300e+02 7.54677100e-03 1.06249800e-01
       21 -1    0    0  504  502 +0.0000000000e+00 +0.0000000000e+00 +9.9037842571e+01 9.9037842571e+01 0.0000000000e+00 0.0000e+00 -1.0000e+00
       21 -1    0    0  502  503 -0.0000000000e+00 -0.0000000000e+00 -9.5492738346e+02 9.5492738346e+02 0.0000000000e+00 0.0000e+00 -1.0000e+00
        6  1    1    2  501    0 -7.3887358560e+01 +1.3148759817e+02 -3.0047515024e+02 3.7810401498e+02 1.7300000000e+02 0.0000e+00 -1.0000e+00
       -6  1    1    2    0  503 +1.6975217670e+02 -5.1768246633e+01 -4.0839309601e+02 4.7771296165e+02 1.7300000000e+02 0.0000e+00 -1.0000e+00
       21  1    1    2  504  505 -5.6145135269e+01 -7.3417957915e+01 -1.0737744495e+02 1.4167705687e+02 0.0000000000e+00 0.0000e+00 -1.0000e+00
       21  1    1    2  505  501 -3.9719682872e+01 -6.3013936249e+00 -3.9643849684e+01 5.6471192539e+01 0.0000000000e+00 0.0000e+00 -1.0000e+00
<mgrwt>
<rscale>  4 0.23113732E+03</rscale>
<asrwt>0</asrwt>
<pdfrwt beam="1">  1       21 0.15236591E-01 0.23113732E+03</pdfrwt>
<pdfrwt beam="2">  1       21 0.14691191E+00 0.23113732E+03</pdfrwt>
<totfact> 0.11718362E+04</totfact>
</mgrwt>
</event>
<event>
 6      1 +2.5168241e+02 1.77823700e+02 7.54677100e-03 1.17132900e-01
       21 -1    0    0  505  502 +0.0000000000e+00 +0.0000000000e+00 +3.7138779188e+02 3.7138779188e+02 0.0000000000e+00 0.0000e+00 1.0000e+00
       21 -1    0    0  504  503 -0.0000000000e+00 -0.0000000000e+00 -1.1558464839e+03 1.1558464839e+03 0.0000000000e+00 0.0000e+00 1.0000e+00
        6  1    1    2  501    0 -4.2348615052e+01 +3.8382219148e+01 +1.1616989489e+02 2.1608110612e+02 1.7300000000e+02 0.0000e+00 1.0000e+00
       -6  1    1    2    0  502 +3.6878012190e+01 +4.4699378494e+00 +1.3158177472e+02 2.2050562706e+02 1.7300000000e+02 0.0000e+00 -1.0000e+00
       21  1    1    2  504  501 +2.8005219315e+01 -4.3564559128e+01 -1.0563487791e+03 1.0576175614e+03 0.0000000000e+00 0.0000e+00 1.0000e+00
       21  1    1    2  505  503 -2.2534616454e+01 +7.1240213042e-01 +2.4138417497e+01 3.3029981150e+01 0.0000000000e+00 0.0000e+00 -1.0000e+00
<mgrwt>
<rscale>  4 0.17782373E+03</rscale>
<asrwt>0</asrwt>
<pdfrwt beam="1">  1       21 0.57136583E-01 0.17782373E+03</pdfrwt>
<pdfrwt beam="2">  1       21 0.17782254E+00 0.17782373E+03</pdfrwt>
<totfact> 0.55154324E+02</totfact>
</mgrwt>
</event>
<event>
 6      1 +2.5168241e+02 1.89523400e+02 7.54677100e-03 1.15942100e-01
       21 -1    0    0  504  502 +0.0000000000e+00 +0.0000000000e+00 +7.4431158786e+01 7.4431158786e+01 0.0000000000e+00 0.0000e+00 1.0000e+00
       21 -1    0    0  501  503 -0.0000000000e+00 -0.0000000000e+00 -1.7122368524e+03 1.7122368524e+03 0.0000000000e+00 0.0000e+00 -1.0000e+00
        6  1    1    2  501    0 -9.2736517506e+01 +2.3775505523e+00 -1.7491963052e+02 2.6292887169e+02 1.7300000000e+02 0.0000e+00 1.0000e+00
       -6  1    1    2    0  502 +5.7051258291e+01 -1.2315814815e+01 -2.5109897883e+02 3.1046130602e+02 1.7300000000e+02 0.0000e+00 1.0000e+00
       21  1    1    2  504  505 +2.6711319061e+01 -1.2555627135e+01 -9.2475370096e+02 9.2522459207e+02 0.0000000000e+00 0.0000e+00 -1.0000e+00
       21  1    1    2  505  503 +8.9739401546e+00 +2.2493891398e+01 -2.8703338326e+02 2.8805324136e+02 0.0000000000e+00 0.0000e+00 -1.0000e+00
<mgrwt>
<rscale>  4 0.18952339E+03</rscale>
<asrwt>0</asrwt>
<pdfrwt beam="1">  1       21 0.11450947E-01 0.18952339E+03</pdfrwt>
<pdfrwt beam="2">  1       21 0.26342106E+00 0.18952339E+03</pdfrwt>
<totfact> 0.35538016E+03</totfact>
</mgrwt>
</event>
<event>
 6      1 +2.5168241e+02 2.56788600e+02 7.54677100e-03 1.07064900e-01
       21 -1    0    0  501  502 +0.0000000000e+00 +0.0000000000e+00 +3.7058077709e+02 3.7058077709e+02 0.0000000000e+00 0.0000e+00 1.0000e+00
       21 -1    0    0  504  503 -0.0000000000e+00 -0.0000000000e+00 -1.1848509933e+03 1.1848509933e+03 0.0000000000e+00 0.0000e+00 -1.0000e+00
        6  1    1    2  501    0 +2.0356368098e+01 +2.4526413616e+02 -6.0075741860e+02 6.7186855426e+02 1.7300000000e+02 0.0000e+00 -1.0000e+00
       -6  1    1    2    0  503 +1.8714244991e+02 -9.2077907720e+01 -4.1444890380e+02 4.9517424358e+02 1.7300000000e+02 0.0000e+00 -1.0000e+00
       21  1    1    2  504  505 -1.7938280867e+02 -9.8820464293e+01 +3.0203083109e+01 2.0701667189e+02 0.0000000000e+00 0.0000e+00 1.0000e+00
       21  1    1    2  505  502 -2.8116009334e+01 -5.4365764146e+01 +1.7073302306e+02 1.8137230068e+02 0.0000000000e+00 0.0000e+00 1.0000e+00
<mgrwt>
<rscale>  4 0.25678856E+03</rscale>
<asrwt>0</asrwt>
<pdfrwt beam="1">  1       21 0.57012428E-01 0.25678856E+03</pdfrwt>
<pdfrwt beam="2">  1       21 0.18228477E+00 0.25678856E+03</pdfrwt>
<totfact> 0.47470739E+02</totfact>
</mgrwt>
</event>
<event>
 6      1 +2.5168241e+02 1.97247000e+02 7.54677100e-03 1.09842800e-01
       21 -1    0    0  505  502 +0.0000000000e+00 +0.0000000000e+00 +7.3183723611e+02 7.3183723611e+02 0.0000000000e+00 0.0000e+00 -1.0000e+00
       21 -1    0    0  504  503 -0.0000000000e+00 -0.0000000000e+00 -1.1864280776e+02 1.1864280776e+02 0.0000000000e+00 0.0000e+00 -1.0000e+00
        6  1    1    2  501    0 -8.4918514536e+01 +4.1942141681e+01 +2.2872539850e+02 3.0201755790e+02 1.7300000000e+02 0.0000e+00 1.0000e+00
       -6  1    1    2    0  502 +1.1739258583e+02 +2.9028067961e+01 +1.5970175300e+02 2.6468339171e+02 1.7300000000e+02 0.0000e+00 -1.0000e+00
       21  1    1    2  504  501 -5.5425888895e+01 -5.1242602505e+01 +2.1801574288e+01 7.8569345884e+01 0.0000000000e+00 0.0000e+00 -1.0000e+00
       21  1    1    2  505  503 +2.2951817604e+01 -1.9727607138e+01 +2.0296570257e+02 2.0520974839e+02 0.0000000000e+00 0.0000e+00 -1.0000e+00
<mgrwt>
<rscale>  4 0.19724701E+03</rscale>
<asrwt>0</asrwt>
<pdfrwt beam="1">  1       21 0.11259034E+00 0.19724701E+03</pdfrwt>
<pdfrwt beam="2">  1       21 0.18252740E-01 0.19724701E+03</pdfrwt>
<totfact> 0.16838345E+04</totfact>
</mgrwt>
</event>
<event>
 6      1 +2.5168241e+02 1.96188100e+02 7.54677100e-03 1.05831300e-01
       21 -1    0    0  504  502 +0.0000000000e+00 +0.0000000000e+00 +1.1765123494e+02 1.1765123494e+02 0.0000000000e+00 0.0000e+00 -1.0000e+00
       21 -1    0    0  501  503 -0.0000000000e+00 -0.0000000000e+00 -8.4093353560e+02 8.4093353560e+02 0.0000000000e+00 0.0000e+00 -1.0000e+00
        6  1    1    2  501    0 +7.7066575542e+01 -1.1215317262e+02 -2.7060051819e+02 3.4881403590e+02 1.7300000000e+02 0.0000e+00 -1.0000e+00
       -6  1    1    2    0  505 +2.7773867013e+01 +6.3429977678e+01 -3.7700459468e+02 4.2054276140e+02 1.7300000000e+02 0.0000e+00 -1.0000e+00
       21  1    1    2  504  503 -7.3911245709e+01 +2.8712152099e+01 -1.1217571018e+02 1.3737048400e+02 0.0000000000e+00 0.0000e+00 -1.0000e+00
       21  1    1    2  505  502 -3.0929196846e+01 +2.0011042846e+01 +3.6498522391e+01 5.1857489237e+01 0.0000000000e+00 0.0000e+00 -1.0000e+00
<mgrwt>
<rscale>  4 0.19618807E+03</rscale>
<asrwt>0</asrwt>
<pdfrwt beam="1">  1       21 0.18100190E-01 0.19618807E+03</pdfrwt>
<pdfrwt beam="2">  1       21 0.12937439E+00 0.19618807E+03</pdfrwt>
<totfact> 0.12128594E+04</totfact>
</mgrwt>
</event>
<event>
 6      1 +2.5168241e+02 2.30864000e+02 7.54677100e-03 1.16820100e-01
       21 -1    0    0  505  502 +0.0000000000e+00 +0.0000000000e+00 +3.2868860804e+02 3.2868860804e+02 0.0000000000e+00 0.0000e+00 -1.0000e+00
       21 -1    0    0  501  503 -0.0000000000e+00 -0.0000000000e+00 -3.5250968099e+02 3.5250968099e+02 0.0000000000e+00 0.0000e+00 -1.0000e+00
        6  1    1    2  501    0 +1.1055066086e+02 -1.0852439897e+02 -9.4578413687e+01 2.5074503011e+02 1.7300000000e+02 0.0000e+00 -1.0000e+00
       -6  1    1    2    0  502 -1.6510109302e+02 +3.4275052010e+01 -4.6689761626e+01 2.4605301044e+02 1.7300000000e+02 0.0000e+00 -1.0000e+00
       21  1    1    2  504  503 -2.0274237432e+01 -7.0436757467e+00 -2.1603697886e+00 2.1571399331e+01 0.0000000000e+00 0.0000e+00 -1.0000e+00
       21  1    1    2  505  504 +7.4824669590e+01 +8.1293022704e+01 +1.1960747216e+02 1.6282884915e+02 0.0000000000e+00 0.0000e+00 -1.0000e+00
<mgrwt>
<rscale>  4 0.23086402E+03</rscale>
<asrwt>0</asrwt>
<pdfrwt beam="1">  1       21 0.50567479E-01 0.23086402E+03</pdfrwt>
<pdfrwt beam="2">  1       21 0.54232258E-01 0.23086402E+03</pdfrwt>
<totfact> 0.11673170E+04</totfact>
</mgrwt>
</event>
<event>
 6      1 +2.5168241e+02 1.75912900e+02 7.54677100e-03 1.16820100e-01
       21 -1    0    0  505  502 +0.0000000000e+00 +0.0000000000e+00 +2.0068522950e+02 2.0068522950e+02 0.0000000000e+00 0.0000e+00 1.0000e+00
       21 -1    0    0  504  503 -0.0000000000e+00 -0.0000000000e+00 -5.0722109782e+02 5.0722109782e+02 0.0000000000e+00 0.0000e+00 1.0000e+00
        6  1    1    2  501    0 -7.5776805674e+00 -2.3037524392e+01 +1.5056127067e+01 1.7533920193e+02 1.7300000000e+02 0.0000e+00 1.0000e+00
       -6  1    1    2    0  503 +4.0628713292e+01 -5.1521825611e+01 -1.3320010353e+02 2.2798346089e+02 1.7300000000e+02 0.0000e+00 1.0000e+00
       21  1    1    2  504  502 -1.7309771804e+01 +1.7990415979e+01 -2.3080387468e+02 2.3215019241e+02 0.0000000000e+00 0.0000e+00 1.0000e+00
       21  1    1    2  505  501 -1.5741260920e+01 +5.6568934024e+01 +4.2411982830e+01 7.2433472093e+01 0.0000000000e+00 0.0000e+00 1.0000e+00
<mgrwt>
<rscale>  4 0.17591290E+03</rscale>
<asrwt>0</asrwt>
<pdfrwt beam="1">  1       21 0.30874651E-01 0.17591290E+03</pdfrwt>
<pdfrwt beam="2">  1       21 0.78034015E-01 0.17591290E+03</pdfrwt>
<totfact> 0.14816634E+04</totfact>
</mgrwt>
</event>
<event>
 6      1 +2.5168241e+02 3.28423300e+02 7.54677100e-03 1.16820100e-01
       21 -1    0    0  505  502 +0.0000000000e+00 +0.0000000000e+00 +2.1104054313e+02 2.1104054313e+02 0.0000000000e+00 0.0000e+00 1.0000e+00
       21 -1    0    0  504  503 -0.0000000000e+00 -0.0000000000e+00 -1.6416320573e+03 1.6416320573e+03 0.0000000000e+00 0.0000e+00 -1.0000e+00
        6  1    1    2  501    0 -3.3570673414e+02 +2.7710240590e+01 -3.0517767786e+02 4.8634276374e+02 1.7300000000e+02 0.0000e+00 1.0000e+00
       -6  1    1    2    0  503 +2.7012261835e+02 -7.9716329237e+01 -1.1380230112e+03 1.1850511787e+03 1.7300000000e+02 0.0000e+00 -1.0000e+00
       21  1    1    2  504  502 -2.4409125323e+01 -8.4208523355e-01 -5.2755926835e+01 5.8135207257e+01 0.0000000000e+00 0.0000e+00 -1.0000e+00
       21  1    1    2  505  501 +8.9993241116e+01 +5.2848173881e+01 +6.5365101749e+01 1.2314345072e+02 0.0000000000e+00 0.0000e+00 1.0000e+00
<mgrwt>
<rscale>  4 0.32842330E+03</rscale>
<asrwt>0</asrwt>
<pdfrwt beam="1">  1       21 0.32467778E-01 0.32842330E+03</pdfrwt>
<pdfrwt beam="2">  1       21 0.25255876E+00 0.32842330E+03</pdfrwt>
<totfact> 0.51226713E+02</totfact>
</mgrwt>
</event>
<event>
 6      1 +2.5168241e+02 1.94725700e+02 7.54677100e-03 1.16820100e-01
       21 -1    0    0  505  502 +0.0000000000e+00 +0.0000000000e+00 +1.5859667043e+02 1.5859667043e+02 0.0000000000e+00 0.0000e+00 1.0000e+00
       21 -1    0    0  501  503 -0.0000000000e+00 -0.0000000000e+00 -5.1098839212e+02 5.1098839212e+02 0.0000000000e+00 0.0000e+00 1.0000e+00
        6  1    1    2  501    0 -5.3573444380e+01 -6.9877941206e+01 -1.6368294579e+02 2.5391759953e+02 1.7300000000e+02 0.0000e+00 1.0000e+00
       -6  1    1    2    0  502 +1.0548219270e+02 +8.6160511611e+00 -2.0469004908e+02 2.8814535482e+02 1.7300000000e+02 0.0000e+00 1.0000e+00
       21  1    1    2  504  503 +5.1088146538e+00 +2.3929341678e+01 -3.4792917524e+01 4.2535402786e+01 0.0000000000e+00 0.0000e+00 1.0000e+00
       21  1    1    2  505  504 -5.7017562972e+01 +3.7332548367e+01 +5.0774190707e+01 8.4986705413e+01 0.0000000000e+00 0.0000e+00 1.0000e+00
<mgrwt>
<rscale>  4 0.19472573E+03</rscale>
<asrwt>0</asrwt>
<pdfrwt beam="1">  1       21 0.24399488E-01 0.19472573E+03</pdfrwt>
<pdfrwt beam="2">  1       21 0.78613597E-01 0.19472573E+03</pdfrwt>
<totfact> 0.22671649E+04</totfact>
</mgrwt>
</event>
<event>
 6      1 +2.5168241e+02 1.87543300e+02 7.54677100e-03 1.16820100e-01
       21 -1    0    0  505  502 +0.0000000000e+00 +0.0000000000e+00 +2.5301498238e+02 2.5301498238e+02 0.0000000000e+00 0.0000e+00 1.0000e+00
       21 -1    0    0  501  503 -0.0000000000e+00 -0.0000000000e+00 -2.6235621657e+02 2.6235621657e+02 0.0000000000e+00 0.0000e+00 1.0000e+00
        6  1    1    2  501    0 +9.1259955545e+00 -6.8623701054e+01 -2.0079436940e+01 1.8741579424e+02 1.7300000000e+02 0.0000e+00 1.0000e+00
       -6  1    1    2    0  502 -6.8323685188e+01 +5.3913540539e+01 -3.9427479042e+01 1.9763178367e+02 1.7300000000e+02 0.0000e+00 1.0000e+00
       21  1    1    2  504  503 +2.5672842649e+01 +5.6395617166e+00 -3.1827550357e+01 4.1278232372e+01 0.0000000000e+00 0.0000e+00 1.0000e+00
       21  1    1    2  505  504 +3.3524846985e+01 +9.0705987977e+00 +8.1993232139e+01 8.9045388677e+01 0.0000000000e+00 0.0000e+00 -1.0000e+00
<mgrwt>
<rscale>  4 0.18754332E+03</rscale>
<asrwt>0</asrwt>
<pdfrwt beam="1">  1       21 0.38925382E-01 0.18754332E+03</pdfrwt>
<pdfrwt beam="2">  1       21 0.40362495E-01 0.18754332E+03</pdfrwt>
<totfact> 0.37735265E+04</totfact>
</mgrwt>
</event>
<event>
 6      1 +2.5168241e+02 1.75236400e+02 7.54677100e-03 1.11910500e-01
       21 -1    0    0  501  502 +0.0000000000e+00 +0.0000000000e+00 +1.9549731995e+02 1.9549731995e+02 0.0000000000e+00 0.0000e+00 -1.0000e+00
       21 -1    0    0  505  503 -0.0000000000e+00 -0.0000000000e+00 -1.1379045225e+03 1.1379045225e+03 0.0000000000e+00 0.0000e+00 -1.0000e+00
        6  1    1    2  501    0 +6.5559473657e+00 -9.6650269915e+00 -3.7595884506e+02 4.1401744694e+02 1.7300000000e+02 0.0000e+00 -1.0000e+00
       -6  1    1    2    0  504 -2.5730468583e+01 -1.7324748428e+01 +1.2900968836e+02 2.1802454819e+02 1.7300000000e+02 0.0000e+00 -1.0000e+00
       21  1    1    2  504  503 -1.9408831314e+01 -6.8607027908e+00 -5.3042706338e+01 5.6897281757e+01 0.0000000000e+00 0.0000e+00 -1.0000e+00
       21  1    1    2  505  502 +3.8583352532e+01 +3.3850478210e+01 -6.4241533951e+02 6.4446256556e+02 0.0000000000e+00 0.0000e+00 -1.0000e+00
<mgrwt>
<rscale>  4 0.17523645E+03</rscale>
<asrwt>0</asrwt>
<pdfrwt beam="1">  1       21 0.30076511E-01 0.17523645E+03</pdfrwt>
<pdfrwt beam="2">  1       21 0.17506223E+00 0.17523645E+03</pdfrwt>
<totfact> 0.21236433E+03</totfact>
</mgrwt>
</event>
<event>
 6      1 +2.5168241e+02 1.81060800e+02 7.54677100e-03 1.12068800e-01
       21 -1    0    0  504  502 +0.0000000000e+00 +0.0000000000e+00 +1.9766832682e+03 1.9766832682e+03 0.0000000000e+00 0.0000e+00 -1.0000e+00
       21 -1    0    0  502  503 -0.0000000000e+00 -0.0000000000e+00 -1.9651408641e+02 1.9651408641e+02 0.0000000000e+00 0.0000e+00 1.0000e+00
        6  1    1    2  501    0 -8.6019971985e+01 -1.1177002985e+02 +2.8724927442e+02 3.6377619604e+02 1.7300000000e+02 0.0000e+00 -1.0000e+00
       -6  1    1    2    0  505 -7.8999186257e+01 -1.4405297070e+01 +1.2727546681e+03 1.2869661337e+03 1.7300000000e+02 0.0000e+00 -1.0000e+00
       21  1    1    2  504  501 +4.0910230443e+01 +1.6816211393e+02 +3.1588996132e+02 3.6019246408e+02 0.0000000000e+00 0.0000e+00 -1.0000e+00
       21  1    1    2  505  503 +1.2410892780e+02 -4.1986787009e+01 -9.5724722040e+01 1.6226256085e+02 0.0000000000e+00 0.0000e+00 1.0000e+00
<mgrwt>
<rscale>  4 0.18106082E+03</rscale>
<asrwt>0</asrwt>
<pdfrwt beam="1">  1       21 0.30410510E+00 0.18106082E+03</pdfrwt>
<pdfrwt beam="2">  1       21 0.30232938E-01 0.18106082E+03</pdfrwt>
<totfact> 0.34550170E+02</totfact>
</mgrwt>
</event>
<event>
 6      1 +2.5168241e+02 4.14281000e+02 7.54677100e-03 1.16820100e-01
       21 -1    0    0  505  502 +0.0000000000e+00 +0.0000000000e+00 +1.6866839345e+02 1.6866839345e+02 0.0000000000e+00 0.0000e+00 1.0000e+00
       21 -1    0    0  504  503 -0.0000000000e+00 -0.0000000000e+00 -2.3377465762e+03 2.3377465762e+03 0.0000000000e+00 0.0000e+00 1.0000e+00
        6  1    1    2  501    0 -1.0079237892e+02 +4.2151810696e+02 -8.7538290239e+02 9.9199840924e+02 1.7300000000e+02 0.0000e+00 1.0000e+00
       -6  1    1    2    0  503 +5.5466985850e+01 -3.2556044892e+02 -9.2253351963e+02 9.9501923964e+02 1.7300000000e+02 0.0000e+00 1.0000e+00
       21  1    1    2  504  502 -6.6853377875e+00 -3.6892637105e+01 -4.2332305322e+02 4.2498019695e+02 0.0000000000e+00 0.0000e+00 -1.0000e+00
       21  1    1    2  505  501 +5.2010730856e+01 -5.9065020931e+01 +5.2161292532e+01 9.4417123767e+01 0.0000000000e+00 0.0000e+00 1.0000e+00
<mgrwt>
<rscale>  4 0.41428100E+03</rscale>
<asrwt>0</asrwt>
<pdfrwt beam="1">  1       21 0.25948985E-01 0.41428100E+03</pdfrwt>
<pdfrwt beam="2">  1       21 0.35965330E+00 0.41428100E+03</pdfrwt>
<totfact> 0.16991577E+02</totfact>
</mgrwt>
</event>
<event>
 6      1 +2.5168241e+02 3.18279500e+02 7.54677100e-03 1.17392200e-01
       21 -1    0    0  504  502 +0.0000000000e+00 +0.0000000000e+00 +4.0091509880e+03 4.0091509880e+03 0.0000000000e+00 0.0000e+00 1.0000e+00
       21 -1    0    0  501  503 -0.0000000000e+00 -0.0000000000e+00 -1.4653689180e+02 1.4653689180e+02 0.0000000000e+00 0.0000e+00 1.0000e+00
        6  1    1    2  501    0 +5.2738327403e+01 +3.5831389754e+01 +2.2049138232e+02 2.8742071836e+02 1.7300000000e+02 0.0000e+00 -1.0000e+00
       -6  1    1    2    0  502 +8.9588887521e+01 +2.4822259721e+02 +3.4870849694e+03 3.5013327763e+03 1.7300000000e+02 0.0000e+00 1.0000e+00
       21  1    1    2  504  505 -5.6856103370e+01 -2.0170678065e+02 +7.0076349941e+01 2.2097270572e+02 0.0000000000e+00 0.0000e+00 1.0000e+00
       21  1    1    2  505  503 -8.5471111554e+01 -8.2347206307e+01 +8.4961394531e+01 1.4596167941e+02 0.0000000000e+00 0.0000e+00 1.0000e+00
<mgrwt>
<rscale>  4 0.27767202E+03</rscale>
<asrwt>0</asrwt>
<pdfrwt beam="1">  1       21 0.61679238E+00 0.31827949E+03</pdfrwt>
<pdfrwt beam="2">  1       21 0.22544140E-01 0.31827949E+03</pdfrwt>
<totfact> 0.38015926E+00</totfact>
</mgrwt>
</event>
<event>
 6      1 +2.5168241e+02 2.77970200e+02 7.54677100e-03 1.16820100e-01
       21 -1    0    0  501  502 +0.0000000000e+00 +0.0000000000e+00 +6.4980241227e+02 6.4980241227e+02 0.0000000000e+00 0.0000e+00 1.0000e+00
       21 -1    0    0  504  503 -0.0000000000e+00 -0.0000000000e+00 -2.2055230303e+02 2.2055230303e+02 0.0000000000e+00 0.0000e+00 1.0000e+00
        6  1    1    2  501    0 +2.0157448627e+02 +1.2039577778e+02 +4.6668933659e+01 2.9535471249e+02 1.7300000000e+02 0.0000e+00 1.0000e+00
       -6  1    1    2    0  503 -1.5080355112e+02 -1.4341517514e+02 +1.8628243017e+02 3.2854188056e+02 1.7300000000e+02 0.0000e+00 1.0000e+00
       21  1    1    2  504  505 -1.4481574627e+01 -1.9918462510e+01 -1.4305110695e+01 2.8479770793e+01 0.0000000000e+00 0.0000e+00 -1.0000e+00
       21  1    1    2  505  502 -3.6289360517e+01 +4.2937859874e+01 +2.1060385610e+02 2.1797835145e+02 0.0000000000e+00 0.0000e+00 1.0000e+00
<mgrwt>
<rscale>  4 0.27797021E+03</rscale>
<asrwt>0</asrwt>
<pdfrwt beam="1">  1       21 0.99969601E-01 0.27797021E+03</pdfrwt>
<pdfrwt beam="2">  1       21 0.33931124E-01 0.27797021E+03</pdfrwt>
<totfact> 0.65063903E+03</totfact>
</mgrwt>
</event>
<event>
 6      1 +2.5168241e+02 1.83380700e+02 7.54677100e-03 1.11671100e-01
       21 -1    0    0  503  502 +0.0000000000e+00 +0.0000000000e+00 +7.7080609298e+02 7.7080609298e+02 0.0000000000e+00 0.0000e+00 -1.0000e+00
       21 -1    0    0  501  503 -0.0000000000e+00 -0.0000000000e+00 -8.0355581438e+02 8.0355581438e+02 0.0000000000e+00 0.0000e+00 1.0000e+00
        6  1    1    2  501    0 -3.0217065062e+00 -2.3955971536e+00 -2.2019043741e+02 2.8004945692e+02 1.7300000000e+02 0.0000e+00 -1.0000e+00
       -6  1    1    2    0  504 -9.3173541571e+01 +3.5371598181e+01 -5.1955158340e+02 5.5659258585e+02 1.7300000000e+02 0.0000e+00 1.0000e+00
       21  1    1    2  504  505 +7.3601785700e+01 -1.9897759684e+01 +8.1205763658e+01 1.1138904681e+02 0.0000000000e+00 0.0000e+00 1.0000e+00
       21  1    1    2  505  502 +2.2593462377e+01 -1.3078241344e+01 +6.2578653577e+02 6.2633081777e+02 0.0000000000e+00 0.0000e+00 -1.0000e+00
<mgrwt>
<rscale>  4 0.18338069E+03</rscale>
<asrwt>0</asrwt>
<pdfrwt beam="1">  1       21 0.11858555E+00 0.18338069E+03</pdfrwt>
<pdfrwt beam="2">  1       21 0.12362397E+00 0.18338069E+03</pdfrwt>
<totfact> 0.26982096E+02</totfact>
</mgrwt>
</event>
<event>
 6      1 +2.5168241e+02 2.48384400e+02 7.54677100e-03 1.07064900e-01
       21 -1    0    0  505  502 +0.0000000000e+00 +0.0000000000e+00 +1.6505262917e+03 1.6505262917e+03 0.0000000000e+00 0.0000e+00 -1.0000e+00
       21 -1    0    0  504  503 -0.0000000000e+00 -0.0000000000e+00 -5.5919635179e+02 5.5919635179e+02 0.0000000000e+00 0.0000e+00 -1.0000e+00
        6  1    1    2  501    0 +2.8245882076e+02 -1.2862054128e+01 +5.8302050979e+02 6.7066409826e+02 1.7300000000e+02 0.0000e+00 1.0000e+00
       -6  1    1    2    0  503 -1.7232932977e+02 -1.9949405121e+01 -4.8032227192e+02 5.3919742355e+02 1.7300000000e+02 0.0000e+00 -1.0000e+00
       21  1    1    2  504  502 -8.2679175748e+01 +2.9236585761e+01 +9.3854922872e+02 9.4263740578e+02 0.0000000000e+00 0.0000e+00 -1.0000e+00
       21  1    1    2  505  501 -2.7450315242e+01 +3.5748734884e+00 +5.0082473352e+01 5.7223715926e+01 0.0000000000e+00 0.0000e+00 1.0000e+00
<mgrwt>
<rscale>  4 0.24838437E+03</rscale>
<asrwt>0</asrwt>
<pdfrwt beam="1">  1       21 0.25392712E+00 0.24838437E+03</pdfrwt>
<pdfrwt beam="2">  1       21 0.86030209E-01 0.24838437E+03</pdfrwt>
<totfact> 0.67955732E+01</totfact>
</mgrwt>
</event>
<event>
 6      1 +2.5168241e+02 1.81681400e+02 7.54677100e-03 1.16584500e-01
       21 -1    0    0  505  502 +0.0000000000e+00 +0.0000000000e+00 +7.0234841570e+02 7.0234841570e+02 0.0000000000e+00 0.0000e+00 1.0000e+00
       21 -1    0    0  501  503 -0.0000000000e+00 -0.0000000000e+00 -2.8115346883e+02 2.8115346883e+02 0.0000000000e+00 0.0000e+00 1.0000e+00
        6  1    1    2  501    0 +1.0318826526e+02 -1.6937156823e+01 +2.0445561266e+02 2.8751657851e+02 1.7300000000e+02 0.0000e+00 -1.0000e+00
       -6  1    1    2    0  502 +5.5949517618e+01 +3.1905488301e+00 -4.0259460847e+01 1.8625346255e+02 1.7300000000e+02 0.0000e+00 1.0000e+00
       21  1    1    2  504  503 -1.1368975206e+02 +7.6198052899e+01 -8.3672931433e+01 1.6041403444e+02 0.0000000000e+00 0.0000e+00 1.0000e+00
       21  1    1    2  505  504 -4.5448030816e+01 -6.2451444906e+01 +3.4067172650e+02 3.4931780903e+02 0.0000000000e+00 0.0000e+00 1.0000e+00
<mgrwt>
<rscale>  4 0.18168141E+03</rscale>
<asrwt>0</asrwt>
<pdfrwt beam="1">  1       21 0.10805360E+00 0.18168141E+03</pdfrwt>
<pdfrwt beam="2">  1       21 0.43254380E-01 0.18168141E+03</pdfrwt>
<totfact> 0.35370915E+03</totfact>
</mgrwt>
</event>
<event>
 6      1 +2.5168241e+02 2.55023600e+02 7.54677100e-03 1.16820100e-01
       21 -1    0    0  504  502 +0.0000000000e+00 +0.0000000000e+00 +6.2404147822e+02 6.2404147822e+02 0.0000000000e+00 0.0000e+00 -1.0000e+00
       21 -1    0    0  501  503 -0.0000000000e+00 -0.0000000000e+00 -7.3310705499e+02 7.3310705499e+02 0.0000000000e+00 0.0000e+00 1.0000e+00
        6  1    1    2  501    0 +3.5289156911e+02 +1.3149977003e+01 -1.6105128939e+02 4.2493752395e+02 1.7300000000e+02 0.0000e+00 -1.0000e+00
       -6  1    1    2    0  505 -1.7773269338e+02 +5.1919155598e+01 +2.4449202568e+02 3.5212193859e+02 1.7300000000e+02 0.0000e+00 -1.0000e+00
       21  1    1    2  504  503 -2.0774855652e+02 -3.7512675511e+01 -3.5448355349e+02 4.1258363184e+02 0.0000000000e+00 0.0000e+00 1.0000e+00
       21  1    1    2  505  502 +3.2589680787e+01 -2.7556457090e+01 +1.6197724043e+02 1.6750543884e+02 0.0000000000e+00 0.0000e+00 -1.0000e+00
<mgrwt>
<rscale>  4 0.25502362E+03</rscale>
<asrwt>0</asrwt>
<pdfrwt beam="1">  1       21 0.96006381E-01 0.25502362E+03</pdfrwt>
<pdfrwt beam="2">  1       21 0.11278570E+00 0.25502362E+03</pdfrwt>
<totfact> 0.52279868E+02</totfact>
</mgrwt>
</event>
<event>
 6      1 +2.5168241e+02 1.80025100e+02 7.54677100e-03 1.16820100e-01
       21 -1    0    0  505  502 +0.0000000000e+00 +0.0000000000e+00 +2.6050774816e+02 2.6050774816e+02 0.0000000000e+00 0.0000e+00 -1.0000e+00
       21 -1    0    0  501  503 -0.0000000000e+00 -0.0000000000e+00 -1.7991106192e+03 1.7991106192e+03 0.0000000000e+00 0.0000e+00 -1.0000e+00
        6  1    1    2  501    0 +6.3997746819e+01 -2.1974123960e+01 -1.9664910331e+02 2.7051514478e+02 1.7300000000e+02 0.0000e+00 -1.0000e+00
       -6  1    1    2    0  502 -3.9875445551e+01 +5.2258348095e+01 +7.3962910654e+01 1.9930002071e+02 1.7300000000e+02 0.0000e+00 -1.0000e+00
       21  1    1    2  504  503 -4.9696932885e+01 -1.9489170487e+01 -1.5001572409e+03 1.5011067119e+03 0.0000000000e+00 0.0000e+00 -1.0000e+00
       21  1    1    2  505  504 +2.5574631617e+01 -1.0795053648e+01 +8.4240562535e+01 8.8696490020e+01 0.0000000000e+00 0.0000e+00 -1.0000e+00
<mgrwt>
<rscale>  4 0.18002514E+03</rscale>
<asrwt>0</asrwt>
<pdfrwt beam="1">  1       21 0.40078114E-01 0.18002514E+03</pdfrwt>
<pdfrwt beam="2">  1       21 0.27678626E+00 0.18002514E+03</pdfrwt>
<totfact> 0.28403296E+02</totfact>
</mgrwt>
</event>
<event>
 6      1 +2.5168241e+02 1.77490800e+02 7.54677100e-03 1.15942100e-01
       21 -1    0    0  504  502 +0.0000000000e+00 +0.0000000000e+00 +4.8818632367e+02 4.8818632367e+02 0.0000000000e+00 0.0000e+00 -1.0000e+00
       21 -1    0    0  501  503 -0.0000000000e+00 -0.0000000000e+00 -3.8538395511e+02 3.8538395511e+02 0.0000000000e+00 0.0000e+00 -1.0000e+00
        6  1    1    2  501    0 +6.6025789916e+00 +6.5253256685e+01 +2.4733762519e+02 3.0887939781e+02 1.7300000000e+02 0.0000e+00 -1.0000e+00
       -6  1    1    2    0  502 +2.3937463019e+01 -7.2416196027e+00 +1.6777975059e+02 2.4229009039e+02 1.7300000000e+02 0.0000e+00 1.0000e+00
       21  1    1    2  504  505 -1.2582080326e+01 -3.8254670068e+01 -9.1401107949e+01 9.9879382565e+01 0.0000000000e+00 0.0000e+00 -1.0000e+00
       21  1    1    2  505  503 -1.7957961685e+01 -1.9756967015e+01 -2.2091389928e+02 2.2252140802e+02 0.0000000000e+00 0.0000e+00 -1.0000e+00
<mgrwt>
<rscale>  4 0.17749076E+03</rscale>
<asrwt>0</asrwt>
<pdfrwt beam="1">  1       21 0.75105588E-01 0.17749076E+03</pdfrwt>
<pdfrwt beam="2">  1       21 0.59289839E-01 0.17749076E+03</pdfrwt>
<totfact> 0.42659240E+03</totfact>
</mgrwt>
</event>
<event>
 6      1 +2.5168241e+02 3.13394500e+02 7.54677100e-03 1.07064900e-01
       21 -1    0    0  505  502 +0.0000000000e+00 +0.0000000000e+00 +8.9246346661e+02 8.9246346661e+02 0.0000000000e+00 0.0000e+00 1.0000e+00
       21 -1    0    0  504  503 -0.0000000000e+00 -0.0000000000e+00 -3.1919076818e+02 3.1919076818e+02 0.0000000000e+00 0.0000e+00 -1.0000e+00
        6  1    1    2  501    0 +2.2315093861e+02 -1.9583763959e+02 +5.2633482595e+02 6.2857463478e+02 1.7300000000e+02 0.0000e+00 -1.0000e+00
       -6  1    1    2    0  503 -1.6552926800e+02 +1.9549435969e+02 -1.7262721141e+02 3.5404397658e+02 1.7300000000e+02 0.0000e+00 1.0000e+00
       21  1    1    2  504  502 -3.4802732303e+01 +1.0125918697e+01 +1.6719168077e+02 1.7107548779e+02 0.0000000000e+00 0.0000e+00 -1.0000e+00
       21  1    1    2  505  501 -2.2818938306e+01 -9.7826387962e+00 +5.2373403119e+01 5.7960135623e+01 0.0000000000e+00 0.0000e+00 1.0000e+00
<mgrwt>
<rscale>  4 0.31339454E+03</rscale>
<asrwt>0</asrwt>
<pdfrwt beam="1">  1       21 0.13730207E+00 0.31339454E+03</pdfrwt>
<pdfrwt beam="2">  1       21 0.49106273E-01 0.31339454E+03</pdfrwt>
<totfact> 0.13551708E+03</totfact>
</mgrwt>
</event>
<event>
 6      1 +2.5168241e+02 1.76714900e+02 7.54677100e-03 1.12989000e-01
       21 -1    0    0  503  502 +0.0000000000e+00 +0.0000000000e+00 +1.6534079410e+03 1.6534079410e+03 0.0000000000e+00 0.0000e+00 -1.0000e+00
       21 -1    0    0  504  503 -0.0000000000e+00 -0.0000000000e+00 -3.0256304566e+02 3.0256304566e+02 0.0000000000e+00 0.0000e+00 -1.0000e+00
        6  1    1    2  501    0 -1.9981603686e+01 -4.4185663830e+01 +1.0061497174e+03 1.0220655024e+03 1.7300000000e+02 0.0000e+00 -1.0000e+00
       -6  1    1    2    0  502 +5.8051716498e+01 -4.3074582759e+01 +6.1640912417e+02 6.4429390020e+02 1.7300000000e+02 0.0000e+00 1.0000e+00
       21  1    1    2  504  505 -2.6555962458e+01 +2.9747004671e+01 -1.3693137909e+02 1.4261944471e+02 0.0000000000e+00 0.0000e+00 -1.0000e+00
       21  1    1    2  505  501 -1.1514150354e+01 +5.7513241919e+01 -1.3478256709e+02 1.4699213940e+02 0.0000000000e+00 0.0000e+00 -1.0000e+00
<mgrwt>
<rscale>  4 0.17671492E+03</rscale>
<asrwt>0</asrwt>
<pdfrwt beam="1">  1       21 0.25437045E+00 0.17671492E+03</pdfrwt>
<pdfrwt beam="2">  1       21 0.46548162E-01 0.17671492E+03</pdfrwt>
<totfact> 0.28362157E+02</totfact>
</mgrwt>
</event>
<event>
 6      1 +2.5168241e+02 1.74015500e+02 7.54677100e-03 1.12989000e-01
       21 -1    0    0  505  502 +0.0000000000e+00 +0.0000000000e+00 +1.6670717586e+02 1.6670717586e+02 0.0000000000e+00 0.0000e+00 -1.0000e+00
       21 -1    0    0  504  503 -0.0000000000e+00 -0.0000000000e+00 -3.1446833535e+02 3.1446833535e+02 0.0000000000e+00 0.0000e+00 -1.0000e+00
        6  1    1    2  501    0 +3.7653291974e+01 -4.9494870607e+00 -1.1505741794e+01 1.7749267566e+02 1.7300000000e+02 0.0000e+00 -1.0000e+00
       -6  1    1    2    0  502 +1.3501592191e+01 -3.3094043660e+01 -3.3239468402e+01 1.7975363968e+02 1.7300000000e+02 0.0000e+00 1.0000e+00
       21  1    1    2  504  501 -1.9693062524e+01 +2.3631877397e+01 -6.8318138327e+01 7.4924297564e+01 0.0000000000e+00 0.0000e+00 -1.0000e+00
       21  1    1    2  505  503 -3.1461821641e+01 +1.4411653324e+01 -3.4697810961e+01 4.9004898306e+01 0.0000000000e+00 0.0000e+00 1.0000e+00
<mgrwt>
<rscale>  4 0.17401549E+03</rscale>
<asrwt>0</asrwt>
<pdfrwt beam="1">  1       21 0.25647258E-01 0.17401549E+03</pdfrwt>
<pdfrwt beam="2">  1       21 0.48379743E-01 0.17401549E+03</pdfrwt>
<totfact> 0.59361164E+04</totfact>
</mgrwt>
</event>
<event>
 6      1 +2.5168241e+02 1.95604100e+02 7.54677100e-03 1.11910500e-01
       21 -1    0    0  501  502 +0.0000000000e+00 +0.0000000000e+00 +7.4980497004e+02 7.4980497004e+02 0.0000000000e+00 0.0000e+00 -1.0000e+00
       21 -1    0    0  504  503 -0.0000000000e+00 -0.0000000000e+00 -2.2008411001e+02 2.2008411001e+02 0.0000000000e+00 0.0000e+00 1.0000e+00
        6  1    1    2  501    0 -7.3925793501e+01 -4.7575537479e+01 +3.8295784555e+02 4.2931825745e+02 1.7300000000e+02 0.0000e+00 -1.0000e+00
       -6  1    1    2    0  503 +1.1199537640e+02 -2.3278769081e+01 +2.7932085832e+02 3.4789942127e+02 1.7300000000e+02 0.0000e+00 1.0000e+00
       21  1    1    2  504  505 -1.6985162908e+01 -1.5732639361e+01 -9.1803210597e+01 9.4677564270e+01 0.0000000000e+00 0.0000e+00 -1.0000e+00
       21  1    1    2  505  502 -2.1084419988e+01 +8.6586945921e+01 -4.0754633249e+01 9.7993837058e+01 0.0000000000e+00 0.0000e+00 1.0000e+00
<mgrwt>
<rscale>  4 0.19560415E+03</rscale>
<asrwt>0</asrwt>
<pdfrwt beam="1">  1       21 0.11535461E+00 0.19560415E+03</pdfrwt>
<pdfrwt beam="2">  1       21 0.33859094E-01 0.19560415E+03</pdfrwt>
<totfact> 0.48781453E+03</totfact>
</mgrwt>
</event>
<event>
 6      1 +2.5168241e+02 3.49644500e+02 7.54677100e-03 1.15832300e-01
       21 -1    0    0  501  502 +0.0000000000e+00 +0.0000000000e+00 +2.9854079489e+03 2.9854079489e+03 0.0000000000e+00 0.0000e+00 1.0000e+00
       21 -1    0    0  502  503 -0.0000000000e+00 -0.0000000000e+00 -1.8655748655e+02 1.8655748655e+02 0.0000000000e+00 0.0000e+00 1.0000e+00
        6  1    1    2  501    0 -9.3409481627e+01 +1.3949090652e+02 +7.1038168470e+02 7.5016943567e+02 1.7300000000e+02 0.0000e+00 1.0000e+00
       -6  1    1    2    0  504 +9.1071208111e+01 -2.5788699270e+02 +9.0126586554e+02 9.5760577814e+02 1.7300000000e+02 0.0000e+00 1.0000e+00
       21  1    1    2  504  505 +2.7586049794e+02 +3.0990973697e+02 +9.9706473158e+02 1.0799449701e+03 0.0000000000e+00 0.0000e+00 1.0000e+00
       21  1    1    2  505  503 -2.7352222442e+02 -1.9151365078e+02 +1.9013818057e+02 3.8424525163e+02 0.0000000000e+00 0.0000e+00 1.0000e+00
<mgrwt>
<rscale>  4 0.31860549E+03</rscale>
<asrwt>0</asrwt>
<pdfrwt beam="1">  1       21 0.45929350E+00 0.34964446E+03</pdfrwt>
<pdfrwt beam="2">  1       21 0.28701154E-01 0.34964446E+03</pdfrwt>
<totfact> 0.33533655E+01</totfact>
</mgrwt>
</event>
<event>
 6      1 +2.5168241e+02 2.03302400e+02 7.54677100e-03 1.15942100e-01
       21 -1    0    0  504  502 +0.0000000000e+00 +0.0000000000e+00 +1.6304171322e+02 1.6304171322e+02 0.0000000000e+00 0.0000e+00 -1.0000e+00
       21 -1    0    0  501  503 -0.0000000000e+00 -0.0000000000e+00 -3.4391707798e+02 3.4391707798e+02 0.0000000000e+00 0.0000e+00 1.0000e+00
        6  1    1    2  501    0 -8.1652817524e+01 -2.2892486088e+01 -8.6826948470e+01 2.1132715753e+02 1.7300000000e+02 0.0000e+00 -1.0000e+00
       -6  1    1    2    0  502 +1.1657697447e+02 +6.8150064369e+01 -8.6679764673e+01 2.3595975050e+02 1.7300000000e+02 0.0000e+00 1.0000e+00
       21  1    1    2  504  505 -1.4406995579e+01 -3.1104253357e+01 -3.6964393440e+00 3.4477525467e+01 0.0000000000e+00 0.0000e+00 -1.0000e+00
       21  1    1    2  505  503 -2.0517161369e+01 -1.4153324925e+01 -3.6722122762e+00 2.5194357703e+01 0.0000000000e+00 0.0000e+00 -1.0000e+00
<mgrwt>
<rscale>  4 0.20330242E+03</rscale>
<asrwt>0</asrwt>
<pdfrwt beam="1">  1       21 0.25083341E-01 0.20330242E+03</pdfrwt>
<pdfrwt beam="2">  1       21 0.52910319E-01 0.20330242E+03</pdfrwt>
<totfact> 0.50678883E+04</totfact>
</mgrwt>
</event>
<event>
 6      1 +2.5168241e+02 2.39369100e+02 7.54677100e-03 1.11910500e-01
       21 -1    0    0  501  502 +0.0000000000e+00 +0.0000000000e+00 +2.6674647968e+03 2.6674647968e+03 0.0000000000e+00 0.0000e+00 -1.0000e+00
       21 -1    0    0  505  503 -0.0000000000e+00 -0.0000000000e+00 -3.7246923526e+01 3.7246923526e+01 0.0000000000e+00 0.0000e+00 -1.0000e+00
        6  1    1    2  501    0 -1.5981828264e+02 +5.2333263424e+01 +1.0705656311e+03 1.0974153382e+03 1.7300000000e+02 0.0000e+00 1.0000e+00
       -6  1    1    2    0  504 +1.4906596066e+02 -6.8136218555e+01 +1.4550116471e+03 1.4743985547e+03 1.7300000000e+02 0.0000e+00 -1.0000e+00
       21  1    1    2  504  503 -1.1765742171e+01 +3.2334278062e+01 +9.8444087370e+01 1.0428411463e+02 0.0000000000e+00 0.0000e+00 1.0000e+00
       21  1    1    2  505  502 +2.2518064143e+01 -1.6531322931e+01 +6.1965076132e+00 2.8613712748e+01 0.0000000000e+00 0.0000e+00 -1.0000e+00
<mgrwt>
<rscale>  4 0.23936913E+03</rscale>
<asrwt>0</asrwt>
<pdfrwt beam="1">  1       21 0.41037905E+00 0.23936913E+03</pdfrwt>
<pdfrwt beam="2">  1       21 0.57302980E-02 0.23936913E+03</pdfrwt>
<totfact> 0.15017143E+03</totfact>
</mgrwt>
</event>
<event>
 6      1 +2.5168241e+02 4.48817300e+02 7.54677100e-03 1.15942100e-01
       21 -1    0    0  503  502 +0.0000000000e+00 +0.0000000000e+00 +7.6079653643e+02 7.6079653643e+02 0.0000000000e+00 0.0000e+00 -1.0000e+00
       21 -1    0    0  501  503 -0.0000000000e+00 -0.0000000000e+00 -3.8087422463e+02 3.8087422463e+02 0.0000000000e+00 0.0000e+00 1.0000e+00
        6  1    1    2  501    0 -3.9314942413e+01 -4.8364689217e+02 +2.4774069114e+02 5.7163312627e+02 1.7300000000e+02 0.0000e+00 -1.0000e+00
       -6  1    1    2    0  505 +4.7727532096e+01 +3.5349815287e+02 +1.6763572023e+02 4.3042954836e+02 1.7300000000e+02 0.0000e+00 1.0000e+00
       21  1    1    2  504  502 -5.0366640916e+00 +5.9933930991e+01 +1.5545943347e+00 6.0165279296e+01 0.0000000000e+00 0.0000e+00 1.0000e+00
       21  1    1    2  505  504 -3.3759255913e+00 +7.0214808314e+01 -3.7008693915e+01 7.9442807135e+01 0.0000000000e+00 0.0000e+00 1.0000e+00
<mgrwt>
<rscale>  4 0.44881733E+03</rscale>
<asrwt>0</asrwt>
<pdfrwt beam="1">  1       21 0.11704562E+00 0.44881733E+03</pdfrwt>
<pdfrwt beam="2">  1       21 0.58596035E-01 0.44881733E+03</pdfrwt>
<totfact> 0.13074133E+03</totfact>
</mgrwt>
</event>
<event>
 6      1 +2.5168241e+02 2.37531200e+02 7.54677100e-03 1.11471900e-01
       21 -1    0    0  503  502 +0.0000000000e+00 +0.0000000000e+00 +6.4497819325e+02 6.4497819325e+02 0.0000000000e+00 0.0000e+00 1.0000e+00
       21 -1    0    0  501  503 -0.0000000000e+00 -0.0000000000e+00 -5.2977230003e+02 5.2977230003e+02 0.0000000000e+00 0.0000e+00 1.0000e+00
        6  1    1    2  501    0 +9.4706306001e+01 +1.7146889088e+02 +3.7251841996e+02 4.5504927002e+02 1.7300000000e+02 0.0000e+00 1.0000e+00
       -6  1    1    2    0  504 -1.4655480746e+02 -5.7837900161e+01 -3.9658877776e+02 4.6047279283e+02 1.7300000000e+02 0.0000e+00 1.0000e+00
       21  1    1    2  504  505 +3.9875046891e+01 -6.2710091114e+01 -3.1430114554e+01 8.0687217036e+01 0.0000000000e+00 0.0000e+00 1.0000e+00
       21  1    1    2  505  502 +1.1973454566e+01 -5.0920899605e+01 +1.7070636558e+02 1.7854121340e+02 0.0000000000e+00 0.0000e+00 1.0000e+00
<mgrwt>
<rscale>  4 0.23753119E+03</rscale>
<asrwt>0</asrwt>
<pdfrwt beam="1">  1       21 0.99227414E-01 0.23753119E+03</pdfrwt>
<pdfrwt beam="2">  1       21 0.81503431E-01 0.23753119E+03</pdfrwt>
<totfact> 0.10580150E+03</totfact>
</mgrwt>
</event>
<event>
 6      1 +2.5168241e+02 2.09039600e+02 7.54677100e-03 1.09842800e-01
       21 -1    0    0  505  502 +0.0000000000e+00 +0.0000000000e+00 +6.2980096242e+02 6.2980096242e+02 0.0000000000e+00 0.0000e+00 1.0000e+00
       21 -1    0    0  502  503 -0.0000000000e+00 -0.0000000000e+00 -3.7312739218e+02 3.7312739218e+02 0.0000000000e+00 0.0000e+00 -1.0000e+00
        6  1    1    2  501    0 +1.2540210578e+02 +5.7698501847e+01 -1.4631191609e+02 2.6531298883e+02 1.7300000000e+02 0.0000e+00 -1.0000e+00
       -6  1    1    2    0  503 -1.0400139684e+02 +1.1227763603e+02 -5.3929628068e+01 2.3719182718e+02 1.7300000000e+02 0.0000e+00 -1.0000e+00
       21  1    1    2  504  501 +4.4157303439e+00 -6.8739682718e+01 +6.4595845303e+01 9.4431275990e+01 0.0000000000e+00 0.0000e+00 1.0000e+00
       21  1    1    2  505  504 -2.5816439284e+01 -1.0123645516e+02 +3.9231926910e+02 4.0599226260e+02 0.0000000000e+00 0.0000e+00 1.0000e+00
<mgrwt>
<rscale>  4 0.20903962E+03</rscale>
<asrwt>0</asrwt>
<pdfrwt beam="1">  1       21 0.96892456E-01 0.20903962E+03</pdfrwt>
<pdfrwt beam="2">  1       21 0.57404214E-01 0.20903962E+03</pdfrwt>
<totfact> 0.24837423E+03</totfact>
</mgrwt>
</event>
<event>
 6      1 +2.5168241e+02 2.48979400e+02 7.54677100e-03 1.04003000e-01
       21 -1    0    0  504  502 +0.0000000000e+00 +0.0000000000e+00 +2.5513285478e+03 2.5513285478e+03 0.0000000000e+00 0.0000e+00 -1.0000e+00
       21 -1    0    0  505  503 -0.0000000000e+00 -0.0000000000e+00 -7.4093023908e+02 7.4093023908e+02 0.0000000000e+00 0.0000e+00 1.0000e+00
        6  1    1    2  501    0 -1.4236326857e+02 -1.4556932677e+02 +1.9253301640e+03 1.9437805868e+03 1.7300000000e+02 0.0000e+00 -1.0000e+00
       -6  1    1    2    0  503 +1.3182907982e+02 +1.6571893920e+02 +3.9824277511e+02 4.8308175397e+02 1.7300000000e+02 0.0000e+00 -1.0000e+00
       21  1    1    2  504  501 +5.8272709244e+00 -7.7690150753e+01 -6.8227686514e+02 6.8671059211e+02 0.0000000000e+00 0.0000e+00 1.0000e+00
       21  1    1    2  505  502 +4.7069178242e+00 +5.7540538327e+01 +1.6910223479e+02 1.7868585405e+02 0.0000000000e+00 0.0000e+00 -1.0000e+00
<mgrwt>
<rscale>  4 0.24897941E+03</rscale>
<asrwt>0</asrwt>
<pdfrwt beam="1">  1       21 0.39251208E+00 0.24897941E+03</pdfrwt>
<pdfrwt beam="2">  1       21 0.11398927E+00 0.24897941E+03</pdfrwt>
<totfact> 0.52063449E+00</totfact>
</mgrwt>
</event>
<event>
 6      1 +2.5168241e+02 3.27041400e+02 7.54677100e-03 1.09842800e-01
       21 -1    0    0  505  502 +0.0000000000e+00 +0.0000000000e+00 +8.3274573501e+02 8.3274573501e+02 0.0000000000e+00 0.0000e+00 -1.0000e+00
       21 -1    0    0  501  503 -0.0000000000e+00 -0.0000000000e+00 -5.5628674715e+02 5.5628674715e+02 0.0000000000e+00 0.0000e+00 -1.0000e+00
        6  1    1    2  501    0 -8.5352727335e+01 -1.3534430229e+01 -2.8165981731e+02 3.4165702328e+02 1.7300000000e+02 0.0000e+00 -1.0000e+00
       -6  1    1    2    0  504 +1.1900170312e+02 +2.4994488125e+02 +2.1291016439e+02 3.8973527824e+02 1.7300000000e+02 0.0000e+00 -1.0000e+00
       21  1    1    2  504  502 -6.0464649951e+01 -2.5428686892e+02 -4.5754303104e+01 2.6535116704e+02 0.0000000000e+00 0.0000e+00 -1.0000e+00
       21  1    1    2  505  503 +2.6815674168e+01 +1.7876417900e+01 +3.9096294388e+02 3.9228901360e+02 0.0000000000e+00 0.0000e+00 -1.0000e+00
<mgrwt>
<rscale>  4 0.28645875E+03</rscale>
<asrwt>0</asrwt>
<pdfrwt beam="1">  1       21 0.12811473E+00 0.32704140E+03</pdfrwt>
<pdfrwt beam="2">  1       21 0.85582576E-01 0.32704140E+03</pdfrwt>
<totfact> 0.47149676E+02</totfact>
</mgrwt>
</event>
<event>
 6      1 +2.5168241e+02 2.19186600e+02 7.54677100e-03 9.82877400e-02
       21 -1    0    0  505  502 +0.0000000000e+00 +0.0000000000e+00 +4.4506551421e+02 4.4506551421e+02 0.0000000000e+00 0.0000e+00 1.0000e+00
       21 -1    0    0  502  503 -0.0000000000e+00 -0.0000000000e+00 -1.1600149792e+03 1.1600149792e+03 0.0000000000e+00 0.0000e+00 1.0000e+00
        6  1    1    2  501    0 -7.8969104669e+01 +1.5686054060e+02 +1.3945597753e+02 2.8322838551e+02 1.7300000000e+02 0.0000e+00 1.0000e+00
       -6  1    1    2    0  504 -2.1836577657e+01 -3.4307963228e+01 -3.0145065498e+02 3.4993623684e+02 1.7300000000e+02 0.0000e+00 1.0000e+00
       21  1    1    2  504  503 +1.2159750286e+02 -8.7025676580e+01 -7.5298777258e+02 7.6769134862e+02 0.0000000000e+00 0.0000e+00 1.0000e+00
       21  1    1    2  505  501 -2.0791820536e+01 -3.5526900796e+01 +2.0003298501e+02 2.0422452246e+02 0.0000000000e+00 0.0000e+00 1.0000e+00
<mgrwt>
<rscale>  4 0.21918659E+03</rscale>
<asrwt>0</asrwt>
<pdfrwt beam="1">  1       21 0.68471618E-01 0.21918659E+03</pdfrwt>
<pdfrwt beam="2">  1       21 0.17846384E+00 0.21918659E+03</pdfrwt>
<totfact> 0.35151427E+02</totfact>
</mgrwt>
</event>
<event>
 6      1 +2.5168241e+02 2.03238500e+02 7.54677100e-03 1.06249800e-01
       21 -1    0    0  503  502 +0.0000000000e+00 +0.0000000000e+00 +2.5381674040e+02 2.5381674040e+02 0.0000000000e+00 0.0000e+00 1.0000e+00
       21 -1    0    0  501  503 -0.0000000000e+00 -0.0000000000e+00 -3.2966965667e+02 3.2966965667e+02 0.0000000000e+00 0.0000e+00 1.0000e+00
        6  1    1    2  501    0 -2.0461901404e+01 -4.5128321647e+01 -2.4071772909e+01 1.8155909527e+02 1.7300000000e+02 0.0000e+00 1.0000e+00
       -6  1    1    2    0  505 +1.1821351663e+02 +1.2312596701e+02 -8.8547871195e+01 2.5865839395e+02 1.7300000000e+02 0.0000e+00 1.0000e+00
       21  1    1    2  504  502 -6.6173172503e+01 -3.4480047633e+01 -5.5824831900e+00 7.4825975185e+01 0.0000000000e+00 0.0000e+00 1.0000e+00
       21  1    1    2  505  504 -3.1578442727e+01 -4.3517597729e+01 +4.2349211028e+01 6.8442932666e+01 0.0000000000e+00 0.0000e+00 -1.0000e+00
<mgrwt>
<rscale>  4 0.20323851E+03</rscale>
<asrwt>0</asrwt>
<pdfrwt beam="1">  1       21 0.39048730E-01 0.20323851E+03</pdfrwt>
<pdfrwt beam="2">  1       21 0.50718408E-01 0.20323851E+03</pdfrwt>
<totfact> 0.23243167E+04</totfact>
</mgrwt>
</event>
<event>
 6      1 +2.5168241e+02 2.14644000e+02 7.54677100e-03 1.06249800e-01
       21 -1    0    0  505  502 +0.0000000000e+00 +0.0000000000e+00 +4.5649037923e+02 4.5649037923e+02 0.0000000000e+00 0.0000e+00 -1.0000e+00
       21 -1    0    0  504  503 -0.0000000000e+00 -0.0000000000e+00 -3.5441572893e+02 3.5441572893e+02 0.0000000000e+00 0.0000e+00 1.0000e+00
        6  1    1    2  501    0 -1.3846803609e+02 +4.8510977853e+01 -1.6536703532e+02 2.8071688293e+02 1.7300000000e+02 0.0000e+00 1.0000e+00
       -6  1    1    2    0  502 +9.2103340922e+01 -3.8120525259e+01 -4.3075695148e+01 2.0425649406e+02 1.7300000000e+02 0.0000e+00 1.0000e+00
       21  1    1    2  504  501 -3.6578341975e+00 -3.0408152284e+01 +4.1528710772e+01 5.1601059046e+01 0.0000000000e+00 0.0000e+00 -1.0000e+00
       21  1    1    2  505  503 +5.0022529370e+01 +2.0017699690e+01 +2.6898866999e+02 2.7433167212e+02 0.0000000000e+00 0.0000e+00 -1.0000e+00
<mgrwt>
<rscale>  4 0.21464396E+03</rscale>
<asrwt>0</asrwt>
<pdfrwt beam="1">  1       21 0.70229289E-01 0.21464396E+03</pdfrwt>
<pdfrwt beam="2">  1       21 0.54525497E-01 0.21464396E+03</pdfrwt>
<totfact> 0.57493343E+03</totfact>
</mgrwt>
</event>
<event>
 6      1 +2.5168241e+02 2.81084900e+02 7.54677100e-03 9.87464100e-02
       21 -1    0    0  503  502 +0.0000000000e+00 +0.0000000000e+00 +2.0180420096e+02 2.0180420096e+02 0.0000000000e+00 0.0000e+00 -1.0000e+00
       21 -1    0    0  505  503 -0.0000000000e+00 -0.0000000000e+00 -1.7155310477e+03 1.7155310477e+03 0.0000000000e+00 0.0000e+00 -1.0000e+00
        6  1    1    2  501    0 +6.8684124330e+01 -3.9909432446e+00 +8.2358211327e+00 1.8636057875e+02 1.7300000000e+02 0.0000e+00 -1.0000e+00
       -6  1    1    2    0  504 -1.8864937467e+02 -1.7345740455e+02 -1.7436655373e+02 3.5497711591e+02 1.7300000000e+02 0.0000e+00 -1.0000e+00
       21  1    1    2  504  502 +1.0932921132e+02 +1.9756714444e+02 -9.0243454853e+02 9.3025467878e+02 0.0000000000e+00 0.0000e+00 -1.0000e+00
       21  1    1    2  505  501 +1.0636039024e+01 -2.0118796639e+01 -4.4516156564e+02 4.4574287524e+02 0.0000000000e+00 0.0000e+00 -1.0000e+00
<mgrwt>
<rscale>  4 0.25368356E+03</rscale>
<asrwt>0</asrwt>
<pdfrwt beam="1">  1       21 0.31046800E-01 0.28108492E+03</pdfrwt>
<pdfrwt beam="2">  1       21 0.26392786E+00 0.28108492E+03</pdfrwt>
<totfact> 0.49773456E+02</totfact>
</mgrwt>
</event>
<event>
 6      1 +2.5168241e+02 2.12233800e+02 7.54677100e-03 1.16820100e-01
       21 -1    0    0  505  502 +0.0000000000e+00 +0.0000000000e+00 +1.1485439760e+03 1.1485439760e+03 0.0000000000e+00 0.0000e+00 -1.0000e+00
       21 -1    0    0  501  503 -0.0000000000e+00 -0.0000000000e+00 -1.5143868231e+02 1.5143868231e+02 0.0000000000e+00 0.0000e+00 1.0000e+00
        6  1    1    2  501    0 +1.6300181250e+01 -1.0724231682e+02 +3.8396809690e-01 2.0419539137e+02 1.7300000000e+02 0.0000e+00 1.0000e+00
       -6  1    1    2    0  502 -5.3877217962e+01 +1.8480264240e+02 +4.4846122267e+02 5.1778493556e+02 1.7300000000e+02 0.0000e+00 -1.0000e+00
       21  1    1    2  504  503 +7.0617603232e+00 -8.7254179503e+01 +1.1994569868e+02 1.4849286492e+02 0.0000000000e+00 0.0000e+00 -1.0000e+00
       21  1    1    2  505  504 +3.0515276389e+01 +9.6938539201e+00 +4.2831440424e+02 4.2950946646e+02 0.0000000000e+00 0.0000e+00 1.0000e+00
<mgrwt>
<rscale>  4 0.21223376E+03</rscale>
<asrwt>0</asrwt>
<pdfrwt beam="1">  1       21 0.17669907E+00 0.21223376E+03</pdfrwt>
<pdfrwt beam="2">  1       21 0.23298260E-01 0.21223376E+03</pdfrwt>
<totfact> 0.32611858E+03</totfact>
</mgrwt>
</event>
<event>
 6      1 +2.5168241e+02 1.93076600e+02 7.54677100e-03 1.15832300e-01
       21 -1    0    0  501  502 +0.0000000000e+00 +0.0000000000e+00 +1.4255448956e+03 1.4255448956e+03 0.0000000000e+00 0.0000e+00 -1.0000e+00
       21 -1    0    0  502  503 -0.0000000000e+00 -0.0000000000e+00 -1.0260803056e+02 1.0260803056e+02 0.0000000000e+00 0.0000e+00 -1.0000e+00
        6  1    1    2  501    0 -1.8675907606e+01 +8.5010804933e+01 +1.1559967092e+03 1.1721062316e+03 1.7300000000e+02 0.0000e+00 -1.0000e+00
       -6  1    1    2    0  504 +3.2894324830e+01 -7.2594790554e+01 +1.4929268032e+02 2.4201104235e+02 1.7300000000e+02 0.0000e+00 -1.0000e+00
       21  1    1    2  504  505 -3.4430018564e+01 -1.0909133495e+01 +5.8317256757e+01 6.8595464921e+01 0.0000000000e+00 0.0000e+00 -1.0000e+00
       21  1    1    2  505  503 +2.0211601341e+01 -1.5068808840e+00 -4.0669781210e+01 4.5440187307e+01 0.0000000000e+00 0.0000e+00 -1.0000e+00
<mgrwt>
<rscale>  4 0.19307658E+03</rscale>
<asrwt>0</asrwt>
<pdfrwt beam="1">  1       21 0.21931458E+00 0.19307658E+03</pdfrwt>
<pdfrwt beam="2">  1       21 0.15785852E-01 0.19307658E+03</pdfrwt>
<totfact> 0.36287520E+03</totfact>
</mgrwt>
</event>
<event>
 6      1 +2.5168241e+02 4.36267600e+02 7.54677100e-03 1.15942100e-01
       21 -1    0    0  504  502 +0.0000000000e+00 +0.0000000000e+00 +1.0678749219e+03 1.0678749219e+03 0.0000000000e+00 0.0000e+00 1.0000e+00
       21 -1    0    0  501  503 -0.0000000000e+00 -0.0000000000e+00 -5.1216407225e+02 5.1216407225e+02 0.0000000000e+00 0.0000e+00 1.0000e+00
        6  1    1    2  501    0 -2.3097582759e+02 +1.0085143176e+01 +2.4219883730e+02 3.7688303203e+02 1.7300000000e+02 0.0000e+00 -1.0000e+00
       -6  1    1    2    0  502 -1.3823174185e+02 +2.1579453738e+02 +5.9802561403e+02 6.7323022203e+02 1.7300000000e+02 0.0000e+00 1.0000e+00
       21  1    1    2  504  505 +2.7520900588e+02 -1.1684408594e+02 -2.2481670881e+02 3.7407898885e+02 0.0000000000e+00 0.0000e+00 1.0000e+00
       21  1    1    2  505  503 +9.3998563553e+01 -1.0903559462e+02 -5.9696892890e+01 1.5584675122e+02 0.0000000000e+00 0.0000e+00 -1.0000e+00
<mgrwt>
<rscale>  4 0.39350281E+03</rscale>
<asrwt>0</asrwt>
<pdfrwt beam="1">  1       21 0.16428845E+00 0.43626764E+03</pdfrwt>
<pdfrwt beam="2">  1       21 0.78794473E-01 0.43626764E+03</pdfrwt>
<totfact> 0.27543320E+02</totfact>
</mgrwt>
</event>
<event>
 6      1 +2.5168241e+02 2.21812200e+02 7.54677100e-03 1.04003000e-01
       21 -1    0    0  504  502 +0.0000000000e+00 +0.0000000000e+00 +2.6318903941e+03 2.6318903941e+03 0.0000000000e+00 0.0000e+00 -1.0000e+00
       21 -1    0    0  505  503 -0.0000000000e+00 -0.0000000000e+00 -1.0111240846e+02 1.0111240846e+02 0.0000000000e+00 0.0000e+00 -1.0000e+00
        6  1    1    2  501    0 +9.3862341011e+01 -7.1151789079e+01 +2.2393372504e+03 2.2490960489e+03 1.7300000000e+02 0.0000e+00 -1.0000e+00
       -6  1    1    2    0  503 -1.3796501172e+02 +7.4232670855e+01 +2.3998227932e+02 3.3476159915e+02 1.7300000000e+02 0.0000e+00 -1.0000e+00
       21  1    1    2  504  501 +2.0565912687e+01 +4.7272671843e-01 -4.5166939014e+01 4.9630964277e+01 0.0000000000e+00 0.0000e+00 -1.0000e+00
       21  1    1    2  505  502 +2.3536758019e+01 -3.5536084946e+00 +9.6625394985e+01 9.9514190281e+01 0.0000000000e+00 0.0000e+00 1.0000e+00
<mgrwt>
<rscale>  4 0.22181217E+03</rscale>
<asrwt>0</asrwt>
<pdfrwt beam="1">  1       21 0.40490616E+00 0.22181217E+03</pdfrwt>
<pdfrwt beam="2">  1       21 0.15555757E-01 0.22181217E+03</pdfrwt>
<totfact> 0.28454910E+02</totfact>
</mgrwt>
</event>
<event>
 6      1 +2.5168241e+02 1.97148500e+02 7.54677100e-03 1.17132900e-01
       21 -1    0    0  505  502 +0.0000000000e+00 +0.0000000000e+00 +1.3562682154e+03 1.3562682154e+03 0.0000000000e+00 0.0000e+00 1.0000e+00
       21 -1    0    0  504  503 -0.0000000000e+00 -0.0000000000e+00 -6.1912441473e+02 6.1912441473e+02 0.0000000000e+00 0.0000e+00 -1.0000e+00
        6  1    1    2  501    0 -7.2277427934e+01 +7.1922423220e+01 +4.4407049204e+02 4.8736481557e+02 1.7300000000e+02 0.0000e+00 -1.0000e+00
       -6  1    1    2    0  502 +1.0207678818e+02 -5.9759904990e+01 +9.4373838214e+01 2.2983981002e+02 1.7300000000e+02 0.0000e+00 -1.0000e+00
       21  1    1    2  504  501 -3.9970815168e+01 +7.3721000168e+00 -5.2879774401e+02 5.3035749075e+02 0.0000000000e+00 0.0000e+00 -1.0000e+00
       21  1    1    2  505  503 +1.0171454924e+01 -1.9534618246e+01 +7.2749721446e+02 7.2783051382e+02 0.0000000000e+00 0.0000e+00 1.0000e+00
<mgrwt>
<rscale>  4 0.19714845E+03</rscale>
<asrwt>0</asrwt>
<pdfrwt beam="1">  1       21 0.20865665E+00 0.19714845E+03</pdfrwt>
<pdfrwt beam="2">  1       21 0.95249910E-01 0.19714845E+03</pdfrwt>
<totfact> 0.10822753E+02</totfact>
</mgrwt>
</event>
<event>
 6      1 +2.5168241e+02 1.83322400e+02 7.54677100e-03 1.03924000e-01
       21 -1    0    0  504  502 +0.0000000000e+00 +0.0000000000e+00 +5.4254058546e+02 5.4254058546e+02 0.0000000000e+00 0.0000e+00 -1.0000e+00
       21 -1    0    0  501  503 -0.0000000000e+00 -0.0000000000e+00 -8.2716532952e+02 8.2716532952e+02 0.0000000000e+00 0.0000e+00 1.0000e+00
        6  1    1    2  501    0 -4.0356455447e+01 +6.9931567227e+00 -4.9741666625e+02 5.2823279679e+02 1.7300000000e+02 0.0000e+00 1.0000e+00
       -6  1    1    2    0  505 +8.7375401170e+01 -7.1592101784e+01 -2.6395327351e+02 3.3520176068e+02 1.7300000000e+02 0.0000e+00 1.0000e+00
       21  1    1    2  504  503 -2.5936490703e+01 +2.7405407454e+01 +1.2044933276e+01 3.9608563787e+01 0.0000000000e+00 0.0000e+00 1.0000e+00
       21  1    1    2  505  502 -2.1082455021e+01 +3.7193537608e+01 +4.6470026242e+02 4.6666279372e+02 0.0000000000e+00 0.0000e+00 -1.0000e+00
<mgrwt>
<rscale>  4 0.18332244E+03</rscale>
<asrwt>0</asrwt>
<pdfrwt beam="1">  1       21 0.83467782E-01 0.18332244E+03</pdfrwt>
<pdfrwt beam="2">  1       21 0.12725620E+00 0.18332244E+03</pdfrwt>
<totfact> 0.57573922E+02</totfact>
</mgrwt>
</event>
<event>
 6      1 +2.5168241e+02 3.56827900e+02 7.54677100e-03 1.12068800e-01
       21 -1    0    0  504  502 +0.0000000000e+00 +0.0000000000e+00 +3.7608840300e+02 3.7608840300e+02 0.0000000000e+00 0.0000e+00 1.0000e+00
       21 -1    0    0  502  503 -0.0000000000e+00 -0.0000000000e+00 -8.6695651789e+02 8.6695651789e+02 0.0000000000e+00 0.0000e+00 -1.0000e+00
        6  1    1    2  501    0 +2.4845867768e+01 +6.3701156713e+01 -9.6780390732e+00 1.8627350577e+02 1.7300000000e+02 0.0000e+00 1.0000e+00
       -6  1    1    2    0  505 +2.5911142817e+02 +1.1548522574e+02 -3.7533455978e+02 5.0127896558e+02 1.7300000000e+02 0.0000e+00 -1.0000e+00
       21  1    1    2  504  501 -3.3580096390e+02 -1.0412668734e+02 +6.8990536412e+01 3.5827970705e+02 0.0000000000e+00 0.0000e+00 1.0000e+00
       21  1    1    2  505  503 +5.1843667960e+01 -7.5059695106e+01 -1.7484605245e+02 1.9721274247e+02 0.0000000000e+00 0.0000e+00 -1.0000e+00
<mgrwt>
<rscale>  4 0.30228207E+03</rscale>
<asrwt>0</asrwt>
<pdfrwt beam="1">  1       21 0.57859755E-01 0.35682793E+03</pdfrwt>
<pdfrwt beam="2">  1       21 0.13337793E+00 0.35682793E+03</pdfrwt>
<totfact> 0.10041907E+03</totfact>
</mgrwt>
</event>
<event>
 6      1 +2.5168241e+02 1.92143000e+02 7.54677100e-03 1.11910500e-01
       21 -1    0    0  501  502 +0.0000000000e+00 +0.0000000000e+00 +4.0829455972e+02 4.0829455972e+02 0.0000000000e+00 0.0000e+00 -1.0000e+00
       21 -1    0    0  504  503 -0.0000000000e+00 -0.0000000000e+00 -2.6972303967e+02 2.6972303967e+02 0.0000000000e+00 0.0000e+00 -1.0000e+00
        6  1    1    2  501    0 +9.8087951406e+01 -6.1612419834e+01 +1.6936928928e+02 2.6838832434e+02 1.7300000000e+02 0.0000e+00 1.0000e+00
       -6  1    1    2    0  503 -6.3359339159e+01 -7.4919851204e+01 +7.6379138852e+01 2.1304967218e+02 1.7300000000e+02 0.0000e+00 -1.0000e+00
       21  1    1    2  504  505 -8.6350913153e-01 +5.4317521622e+01 -9.1325498956e+01 1.0626140204e+02 0.0000000000e+00 0.0000e+00 -1.0000e+00
       21  1    1    2  505  502 -3.3865103115e+01 +8.2214749417e+01 -1.5851409127e+01 9.0318200834e+01 0.0000000000e+00 0.0000e+00 -1.0000e+00
<mgrwt>
<rscale>  4 0.19214299E+03</rscale>
<asrwt>0</asrwt>
<pdfrwt beam="1">  1       21 0.62814548E-01 0.19214299E+03</pdfrwt>
<pdfrwt beam="2">  1       21 0.41495852E-01 0.19214299E+03</pdfrwt>
<totfact> 0.13131297E+04</totfact>
</mgrwt>
</event>
<event>
 6      1 +2.5168241e+02 2.31038000e+02 7.54677100e-03 1.16820100e-01
       21 -1    0    0  501  502 +0.0000000000e+00 +0.0000000000e+00 +4.3640635504e+02 4.3640635504e+02 0.0000000000e+00 0.0000e+00 1.0000e+00
       21 -1    0    0  504  503 -0.0000000000e+00 -0.0000000000e+00 -4.2868133202e+02 4.2868133202e+02 0.0000000000e+00 0.0000e+00 1.0000e+00
        6  1    1    2  501    0 -1.7486691952e+02 +8.6325851579e+01 +1.2889517657e+02 2.9081533442e+02 1.7300000000e+02 0.0000e+00 1.0000e+00
       -6  1    1    2    0  503 +9.8391871350e+01 -1.0607379937e+02 -2.6998181583e+02 3.5178372922e+02 1.7300000000e+02 0.0000e+00 1.0000e+00
       21  1    1    2  504  505 -1.6768656729e+01 -1.9182788158e+01 -1.5332742049e+01 2.9736512720e+01 0.0000000000e+00 0.0000e+00 1.0000e+00
       21  1    1    2  505  502 +9.3243704899e+01 +3.8930735954e+01 +1.6414440433e+02 1.9275211070e+02 0.0000000000e+00 0.0000e+00 1.0000e+00
<mgrwt>
<rscale>  4 0.23103805E+03</rscale>
<asrwt>0</asrwt>
<pdfrwt beam="1">  1       21 0.67139439E-01 0.23103805E+03</pdfrwt>
<pdfrwt beam="2">  1       21 0.65950974E-01 0.23103805E+03</pdfrwt>
<totfact> 0.41653514E+03</totfact>
</mgrwt>
</event>
<event>
 6      1 +2.5168241e+02 3.84353700e+02 7.54677100e-03 1.17132900e-01
       21 -1    0    0  503  502 +0.0000000000e+00 +0.0000000000e+00 +1.1174338245e+03 1.1174338245e+03 0.0000000000e+00 0.0000e+00 -1.0000e+00
       21 -1    0    0  504  503 -0.0000000000e+00 -0.0000000000e+00 -4.8879171519e+02 4.8879171519e+02 0.0000000000e+00 0.0000e+00 -1.0000e+00
        6  1    1    2  501    0 -1.6086957525e+02 -3.0000686992e+02 -3.1867910352e+02 4.9736155185e+02 1.7300000000e+02 0.0000e+00 -1.0000e+00
       -6  1    1    2    0  505 +2.0437252629e+02 +3.0262991985e+02 +5.8453695240e+02 7.1060920808e+02 1.7300000000e+02 0.0000e+00 -1.0000e+00
       21  1    1    2  504  501 -2.3618996863e+01 -4.3530576630e+01 +2.1564046332e+01 5.4016443873e+01 0.0000000000e+00 0.0000e+00 1.0000e+00
       21  1    1    2  505  502 -1.9883954181e+01 +4.0907526701e+01 +3.4122021406e+02 3.4423833584e+02 0.0000000000e+00 0.0000e+00 1.0000e+00
<mgrwt>
<rscale>  4 0.38435371E+03</rscale>
<asrwt>0</asrwt>
<pdfrwt beam="1">  1       21 0.17191290E+00 0.38435371E+03</pdfrwt>
<pdfrwt beam="2">  1       21 0.75198725E-01 0.38435371E+03</pdfrwt>
<totfact> 0.27755775E+02</totfact>
</mgrwt>
</event>
<event>
 6      1 +2.5168241e+02 2.15348800e+02 7.54677100e-03 1.12068800e-01
       21 -1    0    0  504  502 +0.0000000000e+00 +0.0000000000e+00 +4.9773889460e+02 4.9773889460e+02 0.0000000000e+00 0.0000e+00 1.0000e+00
       21 -1    0    0  502  503 -0.0000000000e+00 -0.0000000000e+00 -1.8567791566e+03 1.8567791566e+03 0.0000000000e+00 0.0000e+00 1.0000e+00
        6  1    1    2  501    0 +8.9117304790e+00 -1.2241042613e+01 -1.6352800243e+02 2.3853651637e+02 1.7300000000e+02 0.0000e+00 1.0000e+00
       -6  1    1    2    0  505 -1.2331889340e+02 +7.4714308254e+01 +4.2394405854e+02 4.8004931216e+02 1.7300000000e+02 0.0000e+00 1.0000e+00
       21  1    1    2  504  501 +1.6305118688e+02 -5.8701329930e+01 -1.4227592679e+03 1.4332743876e+03 0.0000000000e+00 0.0000e+00 1.0000e+00
       21  1    1    2  505  503 -4.8644023963e+01 -3.7719357112e+00 -1.9669705018e+02 2.0265783507e+02 0.0000000000e+00 0.0000e+00 1.0000e+00
<mgrwt>
<rscale>  4 0.21534876E+03</rscale>
<asrwt>0</asrwt>
<pdfrwt beam="1">  1       21 0.76575213E-01 0.21534876E+03</pdfrwt>
<pdfrwt beam="2">  1       21 0.28565834E+00 0.21534876E+03</pdfrwt>
<totfact> 0.60424410E+01</totfact>
</mgrwt>
</event>
<event>
 6      1 +2.5168241e+02 2.64564700e+02 7.54677100e-03 1.17132900e-01
       21 -1    0    0  503  502 +0.0000000000e+00 +0.0000000000e+00 +7.6986123594e+02 7.6986123594e+02 0.0000000000e+00 0.0000e+00 -1.0000e+00
       21 -1    0    0  504  503 -0.0000000000e+00 -0.0000000000e+00 -9.7181722808e+02 9.7181722808e+02 0.0000000000e+00 0.0000e+00 -1.0000e+00
        6  1    1    2  501    0 +7.9435480457e+01 -1.6737386806e+00 -7.1222195878e+02 7.3722582397e+02 1.7300000000e+02 0.0000e+00 -1.0000e+00
       -6  1    1    2    0  505 +1.4083347875e+02 -6.5191416405e+00 -1.1999416785e+02 2.5338541446e+02 1.7300000000e+02 0.0000e+00 1.0000e+00
       21  1    1    2  504  501 -2.1611251952e+02 +3.6280563704e+01 +1.4011879638e+02 2.6010416663e+02 0.0000000000e+00 0.0000e+00 1.0000e+00
       21  1    1    2  505  502 -4.1564396794e+00 -2.8087683383e+01 +4.9014133811e+02 4.9096305897e+02 0.0000000000e+00 0.0000e+00 -1.0000e+00
<mgrwt>
<rscale>  4 0.24364896E+03</rscale>
<asrwt>0</asrwt>
<pdfrwt beam="1">  1       21 0.11844019E+00 0.26456469E+03</pdfrwt>
<pdfrwt beam="2">  1       21 0.14951034E+00 0.26456469E+03</pdfrwt>
<totfact> 0.15161590E+02</totfact>
</mgrwt>
</event>
<event>
 6      1 +2.5168241e+02 1.92900100e+02 7.54677100e-03 1.12989000e-01
       21 -1    0    0  504  502 +0.0000000000e+00 +0.0000000000e+00 +7.1766736777e+02 7.1766736777e+02 0.0000000000e+00 0.0000e+00 -1.0000e+00
       21 -1    0    0  502  503 -0.0000000000e+00 -0.0000000000e+00 -2.2628619830e+02 2.2628619830e+02 0.0000000000e+00 0.0000e+00 1.0000e+00
        6  1    1    2  501    0 -3.9481365842e+01 -7.5102635940e+01 +5.5593048469e+02 5.8837648490e+02 1.7300000000e+02 0.0000e+00 -1.0000e+00
       -6  1    1    2    0  503 -2.9994712082e+01 +1.0818332987e+02 +5.4095779632e+01 2.1321038668e+02 1.7300000000e+02 0.0000e+00 1.0000e+00
       21  1    1    2  504  505 +3.1732512171e+01 -9.4909290402e+00 -3.9350215859e+01 5.1434128270e+01 0.0000000000e+00 0.0000e+00 1.0000e+00
       21  1    1    2  505  501 +3.7743565752e+01 -2.3589764894e+01 -7.9294878994e+01 9.0932566214e+01 0.0000000000e+00 0.0000e+00 1.0000e+00
<mgrwt>
<rscale>  4 0.19290015E+03</rscale>
<asrwt>0</asrwt>
<pdfrwt beam="1">  1       21 0.11041036E+00 0.19290015E+03</pdfrwt>
<pdfrwt beam="2">  1       21 0.34813262E-01 0.19290015E+03</pdfrwt>
<totfact> 0.51470811E+03</totfact>
</mgrwt>
</event>
<event>
 6      1 +2.5168241e+02 2.41445400e+02 7.54677100e-03 1.16584500e-01
       21 -1    0    0  505  502 +0.0000000000e+00 +0.0000000000e+00 +2.0233637988e+02 2.0233637988e+02 0.0000000000e+00 0.0000e+00 -1.0000e+00
       21 -1    0    0  501  503 -0.0000000000e+00 -0.0000000000e+00 -7.6253748166e+02 7.6253748166e+02 0.0000000000e+00 0.0000e+00 1.0000e+00
        6  1    1    2  501    0 +2.5288805441e+02 -7.9275455607e+01 -3.2457492910e+02 4.5333745767e+02 1.7300000000e+02 0.0000e+00 -1.0000e+00
       -6  1    1    2    0  502 -1.0279880853e+02 +4.2185655761e+01 -2.3721633896e+02 3.1392326460e+02 1.7300000000e+02 0.0000e+00 -1.0000e+00
       21  1    1    2  504  503 -1.4385249393e+02 +1.3293322180e+01 -3.9458745587e+01 1.4975728706e+02 0.0000000000e+00 0.0000e+00 -1.0000e+00
       21  1    1    2  505  504 -6.2367519477e+00 +2.3796477666e+01 +4.1048911865e+01 4.7855852197e+01 0.0000000000e+00 0.0000e+00 -1.0000e+00
<mgrwt>
<rscale>  4 0.24144537E+03</rscale>
<asrwt>0</asrwt>
<pdfrwt beam="1">  1       21 0.31128674E-01 0.24144537E+03</pdfrwt>
<pdfrwt beam="2">  1       21 0.11731346E+00 0.24144537E+03</pdfrwt>
<totfact> 0.53422347E+03</totfact>
</mgrwt>
</event>
<event>
 6      1 +2.5168241e+02 1.86960500e+02 7.54677100e-03 1.16820100e-01
       21 -1    0    0  504  502 +0.0000000000e+00 +0.0000000000e+00 +6.2928157047e+02 6.2928157047e+02 0.0000000000e+00 0.0000e+00 -1.0000e+00
       21 -1    0    0  501  503 -0.0000000000e+00 -0.0000000000e+00 -1.5663712307e+02 1.5663712307e+02 0.0000000000e+00 0.0000e+00 -1.0000e+00
        6  1    1    2  501    0 -7.9461012396e+01 -7.7262394644e+01 +1.1649954866e+02 2.3618779595e+02 1.7300000000e+02 0.0000e+00 -1.0000e+00
       -6  1    1    2    0  505 -7.3046518289e+00 +6.0363062892e+01 +2.7369177709e+01 1.8540531057e+02 1.7300000000e+02 0.0000e+00 -1.0000e+00
       21  1    1    2  504  503 -2.6904755514e+01 +2.8032798784e+00 +1.6451158168e+01 3.1660146121e+01 0.0000000000e+00 0.0000e+00 -1.0000e+00
       21  1    1    2  505  502 +1.1367041974e+02 +1.4096051874e+01 +3.1232456287e+02 3.3266544090e+02 0.0000000000e+00 0.0000e+00 -1.0000e+00
<mgrwt>
<rscale>  4 0.18696052E+03</rscale>
<asrwt>0</asrwt>
<pdfrwt beam="1">  1       21 0.96812548E-01 0.18696052E+03</pdfrwt>
<pdfrwt beam="2">  1       21 0.24098019E-01 0.18696052E+03</pdfrwt>
<totfact> 0.14449901E+04</totfact>
</mgrwt>
</event>
<event>
 6      1 +2.5168241e+02 3.86172100e+02 7.54677100e-03 1.12989000e-01
       21 -1    0    0  505  502 +0.0000000000e+00 +0.0000000000e+00 +5.6779508007e+02 5.6779508007e+02 0.0000000000e+00 0.0000e+00 -1.0000e+00
       21 -1    0    0  504  503 -0.0000000000e+00 -0.0000000000e+00 -6.6966319335e+02 6.6966319335e+02 0.0000000000e+00 0.0000e+00 1.0000e+00
        6  1    1    2  501    0 -3.0413004628e+02 +1.8670062196e+02 -3.2063352818e+01 3.9788096950e+02 1.7300000000e+02 0.0000e+00 -1.0000e+00
       -6  1    1    2    0  502 +2.5027743577e+02 -2.3340117911e+02 +2.8449738712e+02 4.7747530674e+02 1.7300000000e+02 0.0000e+00 1.0000e+00
       21  1    1    2  504  501 +2.9474759639e+01 +3.2690459478e+01 -1.6709490120e+02 1.7279506244e+02 0.0000000000e+00 0.0000e+00 1.0000e+00
       21  1    1    2  505  503 +2.4377850874e+01 +1.4010097670e+01 -1.8720724638e+02 1.8930693475e+02 0.0000000000e+00 0.0000e+00 1.0000e+00
<mgrwt>
<rscale>  4 0.38617215E+03</rscale>
<asrwt>0</asrwt>
<pdfrwt beam="1">  1       21 0.87353089E-01 0.38617215E+03</pdfrwt>
<pdfrwt beam="2">  1       21 0.10302511E+00 0.38617215E+03</pdfrwt>
<totfact> 0.74838053E+02</totfact>
</mgrwt>
</event>
<event>
 6      1 +2.5168241e+02 2.14182500e+02 7.54677100e-03 1.04003000e-01
       21 -1    0    0  504  502 +0.0000000000e+00 +0.0000000000e+00 +1.4910093440e+03 1.4910093440e+03 0.0000000000e+00 0.0000e+00 -1.0000e+00
       21 -1    0    0  505  503 -0.0000000000e+00 -0.0000000000e+00 -3.6058263035e+02 3.6058263035e+02 0.0000000000e+00 0.0000e+00 -1.0000e+00
        6  1    1    2  501    0 +7.6381645932e+01 -1.9265175022e+01 +1.2733685777e+03 1.2874788687e+03 1.7300000000e+02 0.0000e+00 -1.0000e+00
       -6  1    1    2    0  503 -6.2574232852e+01 +1.1906671668e+02 -1.8337253570e+02 2.8573922462e+02 1.7300000000e+02 0.0000e+00 -1.0000e+00
       21  1    1    2  504  501 +2.7294781724e+01 +5.4898737354e+00 -9.6721164622e+01 1.0064853456e+02 0.0000000000e+00 0.0000e+00 -1.0000e+00
       21  1    1    2  505  502 -4.1102194804e+01 -1.0529141539e+02 +1.3715183636e+02 1.7772534650e+02 0.0000000000e+00 0.0000e+00 -1.0000e+00
<mgrwt>
<rscale>  4 0.21418251E+03</rscale>
<asrwt>0</asrwt>
<pdfrwt beam="1">  1       21 0.22938605E+00 0.21418251E+03</pdfrwt>
<pdfrwt beam="2">  1       21 0.55474251E-01 0.21418251E+03</pdfrwt>
<totfact> 0.26269686E+02</totfact>
</mgrwt>
</event>
<event>
 6      1 +2.5168241e+02 1.80438400e+02 7.54677100e-03 1.17132900e-01
       21 -1    0    0  503  502 +0.0000000000e+00 +0.0000000000e+00 +4.7514922314e+02 4.7514922314e+02 0.0000000000e+00 0.0000e+00 1.0000e+00
       21 -1    0    0  504  503 -0.0000000000e+00 -0.0000000000e+00 -2.2649390469e+02 2.2649390469e+02 0.0000000000e+00 0.0000e+00 1.0000e+00
        6  1    1    2  501    0 +3.2318490711e+01 -3.7875229277e+01 -1.0418142266e+02 2.0799467941e+02 1.7300000000e+02 0.0000e+00 1.0000e+00
       -6  1    1    2    0  505 +3.9938308145e+01 +8.4591602701e+01 +1.0802146994e+02 2.2438459322e+02 1.7300000000e+02 0.0000e+00 1.0000e+00
       21  1    1    2  504  501 -2.1395482041e+01 -3.1860528560e+01 +3.2051840746e+01 5.0001804239e+01 0.0000000000e+00 0.0000e+00 1.0000e+00
       21  1    1    2  505  502 -5.0861316814e+01 -1.4855844863e+01 +2.1276343041e+02 2.1926205097e+02 0.0000000000e+00 0.0000e+00 1.0000e+00
<mgrwt>
<rscale>  4 0.18043836E+03</rscale>
<asrwt>0</asrwt>
<pdfrwt beam="1">  1       21 0.73099880E-01 0.18043836E+03</pdfrwt>
<pdfrwt beam="2">  1       21 0.34845216E-01 0.18043836E+03</pdfrwt>
<totfact> 0.13472143E+04</totfact>
</mgrwt>
</event>
<event>
 6      1 +2.5168241e+02 1.98252300e+02 7.54677100e-03 1.15942100e-01
       21 -1    0    0  504  502 +0.0000000000e+00 +0.0000000000e+00 +7.5840652117e+01 7.5840652117e+01 0.0000000000e+00 0.0000e+00 1.0000e+00
       21 -1    0    0  501  503 -0.0000000000e+00 -0.0000000000e+00 -1.0972341690e+03 1.0972341690e+03 0.0000000000e+00 0.0000e+00 1.0000e+00
        6  1    1    2  501    0 +4.9103527779e+01 -1.2989906806e+02 -7.4535140785e+02 7.7766486709e+02 1.7300000000e+02 0.0000e+00 1.0000e+00
       -6  1    1    2    0  502 -4.2354984071e+01 +7.6677247328e+01 -1.1653819664e+02 2.2623769847e+02 1.7300000000e+02 0.0000e+00 1.0000e+00
       21  1    1    2  504  505 -7.2366968083e+00 +3.0529579093e+01 -1.1515131544e+02 1.1934927912e+02 0.0000000000e+00 0.0000e+00 1.0000e+00
       21  1    1    2  505  503 +4.8815310068e-01 +2.2692241637e+01 -4.4352596955e+01 4.9822976433e+01 0.0000000000e+00 0.0000e+00 1.0000e+00
<mgrwt>
<rscale>  4 0.19825228E+03</rscale>
<asrwt>0</asrwt>
<pdfrwt beam="1">  1       21 0.11667793E-01 0.19825228E+03</pdfrwt>
<pdfrwt beam="2">  1       21 0.16880524E+00 0.19825228E+03</pdfrwt>
<totfact> 0.13367160E+04</totfact>
</mgrwt>
</event>
<event>
 6      1 +2.5168241e+02 2.22609900e+02 7.54677100e-03 9.87464100e-02
       21 -1    0    0  503  502 +0.0000000000e+00 +0.0000000000e+00 +2.2953072123e+02 2.2953072123e+02 0.0000000000e+00 0.0000e+00 -1.0000e+00
       21 -1    0    0  505  503 -0.0000000000e+00 -0.0000000000e+00 -1.0370187784e+03 1.0370187784e+03 0.0000000000e+00 0.0000e+00 -1.0000e+00
        6  1    1    2  501    0 +1.2800940829e+02 +4.5507237808e+01 +1.1062551217e+02 2.4622006670e+02 1.7300000000e+02 0.0000e+00 -1.0000e+00
       -6  1    1    2    0  504 -1.2088546573e+02 -1.6829009087e+02 -5.3608204989e+02 6.0020647675e+02 1.7300000000e+02 0.0000e+00 -1.0000e+00
       21  1    1    2  504  502 -2.9290278939e+01 +1.0604639905e+02 -1.4780550470e+02 1.8425587212e+02 0.0000000000e+00 0.0000e+00 -1.0000e+00
       21  1    1    2  505  501 +2.2166336380e+01 +1.6736454015e+01 -2.3422601470e+02 2.3586708402e+02 0.0000000000e+00 0.0000e+00 -1.0000e+00
<mgrwt>
<rscale>  4 0.22260988E+03</rscale>
<asrwt>0</asrwt>
<pdfrwt beam="1">  1       21 0.35312419E-01 0.22260988E+03</pdfrwt>
<pdfrwt beam="2">  1       21 0.15954135E+00 0.22260988E+03</pdfrwt>
<totfact> 0.19072515E+03</totfact>
</mgrwt>
</event>
<event>
 6      1 +2.5168241e+02 1.93577200e+02 7.54677100e-03 1.03924000e-01
       21 -1    0    0  504  502 +0.0000000000e+00 +0.0000000000e+00 +3.6589435781e+02 3.6589435781e+02 0.0000000000e+00 0.0000e+00 -1.0000e+00
       21 -1    0    0  501  503 -0.0000000000e+00 -0.0000000000e+00 -7.4139836341e+02 7.4139836341e+02 0.0000000000e+00 0.0000e+00 -1.0000e+00
        6  1    1    2  501    0 -7.9301836430e+01 -6.2042505540e+01 -5.9202746665e+02 6.2495085809e+02 1.7300000000e+02 0.0000e+00 -1.0000e+00
       -6  1    1    2    0  505 -2.8141813007e+01 +6.8817908045e+01 -4.9119907090e+01 1.9460121115e+02 1.7300000000e+02 0.0000e+00 1.0000e+00
       21  1    1    2  504  503 +2.3883174581e+01 -4.0111055147e+00 +3.6333647609e+01 4.3664962431e+01 0.0000000000e+00 0.0000e+00 -1.0000e+00
       21  1    1    2  505  502 +8.3560474856e+01 -2.7642969903e+00 +2.2930972054e+02 2.4407568955e+02 0.0000000000e+00 0.0000e+00 -1.0000e+00
<mgrwt>
<rscale>  4 0.19357718E+03</rscale>
<asrwt>0</asrwt>
<pdfrwt beam="1">  1       21 0.56291440E-01 0.19357718E+03</pdfrwt>
<pdfrwt beam="2">  1       21 0.11406129E+00 0.19357718E+03</pdfrwt>
<totfact> 0.17745451E+03</totfact>
</mgrwt>
</event>
<event>
 6      1 +2.5168241e+02 2.06882100e+02 7.54677100e-03 1.11471900e-01
       21 -1    0    0  503  502 +0.0000000000e+00 +0.0000000000e+00 +4.6151502414e+02 4.6151502414e+02 0.0000000000e+00 0.0000e+00 -1.0000e+00
       21 -1    0    0  501  503 -0.0000000000e+00 -0.0000000000e+00 -1.5978881369e+02 1.5978881369e+02 0.0000000000e+00 0.0000e+00 1.0000e+00
        6  1    1    2  501    0 +1.6170961522e+01 -9.5928218935e+01 +1.4792420984e+02 2.4753645195e+02 1.7300000000e+02 0.0000e+00 -1.0000e+00
       -6  1    1    2    0  504 +4.5959960244e+01 +1.2045638378e+02 +2.2860334434e+01 2.1696463590e+02 1.7300000000e+02 0.0000e+00 -1.0000e+00
       21  1    1    2  504  505 -4.6801220851e+01 +8.1749721734e+00 +5.4788549630e+01 7.2518753531e+01 0.0000000000e+00 0.0000e+00 -1.0000e+00
       21  1    1    2  505  502 -1.5329700916e+01 -3.2703137018e+01 +7.6153116545e+01 8.4283996467e+01 0.0000000000e+00 0.0000e+00 -1.0000e+00
<mgrwt>
<rscale>  4 0.20688212E+03</rscale>
<asrwt>0</asrwt>
<pdfrwt beam="1">  1       21 0.71002311E-01 0.20688212E+03</pdfrwt>
<pdfrwt beam="2">  1       21 0.24582895E-01 0.20688212E+03</pdfrwt>
<totfact> 0.27861493E+04</totfact>
</mgrwt>
</event>
<event>
 6      1 +2.5168241e+02 1.97132100e+02 7.54677100e-03 1.11471900e-01
       21 -1    0    0  503  502 +0.0000000000e+00 +0.0000000000e+00 +7.1962634474e+02 7.1962634474e+02 0.0000000000e+00 0.0000e+00 1.0000e+00
       21 -1    0    0  501  503 -0.0000000000e+00 -0.0000000000e+00 -6.6552530591e+02 6.6552530591e+02 0.0000000000e+00 0.0000e+00 1.0000e+00
        6  1    1    2  501    0 -3.8221049824e+01 +4.1980533178e+01 -1.7250041550e+02 2.5081588299e+02 1.7300000000e+02 0.0000e+00 1.0000e+00
       -6  1    1    2    0  504 +1.4358143747e+02 -3.6071600972e+00 -3.3845087425e+02 4.0633315773e+02 1.7300000000e+02 0.0000e+00 1.0000e+00
       21  1    1    2  504  505 -2.8307695322e+01 -2.2567373939e+01 -7.4923357330e+01 8.3211306050e+01 0.0000000000e+00 0.0000e+00 1.0000e+00
       21  1    1    2  505  502 -7.7052692322e+01 -1.5805999142e+01 +6.3997568590e+02 6.4479130387e+02 0.0000000000e+00 0.0000e+00 1.0000e+00
<mgrwt>
<rscale>  4 0.19713211E+03</rscale>
<asrwt>0</asrwt>
<pdfrwt beam="1">  1       21 0.11071175E+00 0.19713211E+03</pdfrwt>
<pdfrwt beam="2">  1       21 0.10238851E+00 0.19713211E+03</pdfrwt>
<totfact> 0.49651273E+02</totfact>
</mgrwt>
</event>
<event>
 6      1 +2.5168241e+02 3.29271100e+02 7.54677100e-03 1.05831300e-01
       21 -1    0    0  504  502 +0.0000000000e+00 +0.0000000000e+00 +4.8313664667e+02 4.8313664667e+02 0.0000000000e+00 0.0000e+00 1.0000e+00
       21 -1    0    0  501  503 -0.0000000000e+00 -0.0000000000e+00 -2.4326513155e+03 2.4326513155e+03 0.0000000000e+00 0.0000e+00 -1.0000e+00
        6  1    1    2  501    0 +7.5768661250e+01 +5.7242052690e+01 -2.0913724295e+02 2.8754987221e+02 1.7300000000e+02 0.0000e+00 1.0000e+00
       -6  1    1    2    0  505 -1.0318808815e+02 +9.5221463387e+01 -1.3266789003e+03 1.3452586417e+03 1.7300000000e+02 0.0000e+00 -1.0000e+00
       21  1    1    2  504  503 -2.6729268745e+02 +1.1179465583e+01 -7.5637397768e+02 8.0229168967e+02 0.0000000000e+00 0.0000e+00 1.0000e+00
       21  1    1    2  505  502 +2.9471211435e+02 -1.6364298166e+02 +3.4267545208e+02 4.8068775858e+02 0.0000000000e+00 0.0000e+00 1.0000e+00
<mgrwt>
<rscale>  4 0.28971691E+03</rscale>
<asrwt>0</asrwt>
<pdfrwt beam="1">  1       21 0.74328713E-01 0.32927112E+03</pdfrwt>
<pdfrwt beam="2">  1       21 0.37425406E+00 0.32927112E+03</pdfrwt>
<totfact> 0.16576412E+01</totfact>
</mgrwt>
</event>
<event>
 6      1 +2.5168241e+02 2.85596400e+02 7.54677100e-03 1.16820100e-01
       21 -1    0    0  505  502 +0.0000000000e+00 +0.0000000000e+00 +9.4545958374e+02 9.4545958374e+02 0.0000000000e+00 0.0000e+00 -1.0000e+00
       21 -1    0    0  501  503 -0.0000000000e+00 -0.0000000000e+00 -8.0938526326e+02 8.0938526326e+02 0.0000000000e+00 0.0000e+00 1.0000e+00
        6  1    1    2  501    0 +1.2068854823e+02 +2.0414702505e+00 +9.9433020242e+01 2.3320767309e+02 1.7300000000e+02 0.0000e+00 1.0000e+00
       -6  1    1    2    0  502 -3.4259940305e+02 +8.0567947735e+01 +6.7972879638e+02 7.8474567970e+02 1.7300000000e+02 0.0000e+00 -1.0000e+00
       21  1    1    2  504  503 +2.1758435922e+02 -5.3660167640e+01 -6.6407804233e+02 7.0087232309e+02 0.0000000000e+00 0.0000e+00 1.0000e+00
       21  1    1    2  505  504 +4.3264955950e+00 -2.8949250346e+01 +2.0990546182e+01 3.6019171128e+01 0.0000000000e+00 0.0000e+00 1.0000e+00
<mgrwt>
<rscale>  4 0.26490917E+03</rscale>
<asrwt>0</asrwt>
<pdfrwt beam="1">  1       21 0.14545532E+00 0.28559641E+03</pdfrwt>
<pdfrwt beam="2">  1       21 0.12452081E+00 0.28559641E+03</pdfrwt>
<totfact> 0.14101311E+02</totfact>
</mgrwt>
</event>
<event>
 6      1 +2.5168241e+02 2.94648200e+02 7.54677100e-03 1.17132900e-01
       21 -1    0    0  505  502 +0.0000000000e+00 +0.0000000000e+00 +3.2808773091e+02 3.2808773091e+02 0.0000000000e+00 0.0000e+00 -1.0000e+00
       21 -1    0    0  504  503 -0.0000000000e+00 -0.0000000000e+00 -6.5676303378e+02 6.5676303378e+02 0.0000000000e+00 0.0000e+00 1.0000e+00
        6  1    1    2  501    0 -2.2895578280e+02 +2.7798579061e+01 -1.5702194481e+02 3.2829621172e+02 1.7300000000e+02 0.0000e+00 1.0000e+00
       -6  1    1    2    0  502 +2.0844395885e+02 -6.3885295341e+01 +6.8603535413e+01 2.8664553025e+02 1.7300000000e+02 0.0000e+00 -1.0000e+00
       21  1    1    2  504  501 -3.9853952051e+01 +3.5521994869e+01 -2.8802290838e+02 2.9292890838e+02 0.0000000000e+00 0.0000e+00 1.0000e+00
       21  1    1    2  505  503 +6.0365776003e+01 +5.6472141105e-01 +4.7766014916e+01 7.6980114339e+01 0.0000000000e+00 0.0000e+00 -1.0000e+00
<mgrwt>
<rscale>  4 0.29464820E+03</rscale>
<asrwt>0</asrwt>
<pdfrwt beam="1">  1       21 0.50475036E-01 0.29464820E+03</pdfrwt>
<pdfrwt beam="2">  1       21 0.10104047E+00 0.29464820E+03</pdfrwt>
<totfact> 0.27835902E+03</totfact>
</mgrwt>
</event>
<event>
 6      1 +2.5168241e+02 3.07437400e+02 7.54677100e-03 1.16820100e-01
       21 -1    0    0  505  502 +0.0000000000e+00 +0.0000000000e+00 +1.3682444478e+03 1.3682444478e+03 0.0000000000e+00 0.0000e+00 1.0000e+00
       21 -1    0    0  504  503 -0.0000000000e+00 -0.0000000000e+00 -2.3656955123e+03 2.3656955123e+03 0.0000000000e+00 0.0000e+00 1.0000e+00
        6  1    1    2  501    0 +6.2473833305e+00 -1.9607864953e+02 +2.1296211766e+02 3.3729472299e+02 1.7300000000e+02 0.0000e+00 -1.0000e+00
       -6  1    1    2    0  503 +1.6995016159e+01 +3.6732741911e+02 -1.2896136812e+02 4.2635466207e+02 1.7300000000e+02 0.0000e+00 1.0000e+00
       21  1    1    2  504  502 -1.3892903398e+01 -1.2502014408e+02 -2.0233279289e+03 2.0272343123e+03 0.0000000000e+00 0.0000e+00 1.0000e+00
       21  1    1    2  505  501 -9.3494960916e+00 -4.6228625499e+01 +9.4187611486e+02 9.4305626271e+02 0.0000000000e+00 0.0000e+00 1.0000e+00
<mgrwt>
<rscale>  4 0.30743736E+03</rscale>
<asrwt>0</asrwt>
<pdfrwt beam="1">  1       21 0.21049915E+00 0.30743736E+03</pdfrwt>
<pdfrwt beam="2">  1       21 0.36395315E+00 0.30743736E+03</pdfrwt>
<totfact> 0.13371052E+00</totfact>
</mgrwt>
</event>
<event>
 6      1 +2.5168241e+02 2.70388000e+02 7.54677100e-03 1.17132900e-01
       21 -1    0    0  503  502 +0.0000000000e+00 +0.0000000000e+00 +7.3787120259e+02 7.3787120259e+02 0.0000000000e+00 0.0000e+00 -1.0000e+00
       21 -1    0    0  504  503 -0.0000000000e+00 -0.0000000000e+00 -2.9240483069e+02 2.9240483069e+02 0.0000000000e+00 0.0000e+00 -1.0000e+00
        6  1    1    2  501    0 -1.8576714822e+02 +6.7974064549e+01 +2.1252377023e+02 3.3797227656e+02 1.7300000000e+02 0.0000e+00 -1.0000e+00
       -6  1    1    2    0  505 +2.2295962918e+02 -1.3365827201e+01 +2.9245016052e+02 4.0662727155e+02 1.7300000000e+02 0.0000e+00 -1.0000e+00
       21  1    1    2  504  501 -1.5314401771e+01 -2.9745797202e+01 -1.6848669613e+02 1.7177633750e+02 0.0000000000e+00 0.0000e+00 -1.0000e+00
       21  1    1    2  505  502 -2.1878079189e+01 -2.4862440146e+01 +1.0897913728e+02 1.1390014768e+02 0.0000000000e+00 0.0000e+00 -1.0000e+00
<mgrwt>
<rscale>  4 0.27038803E+03</rscale>
<asrwt>0</asrwt>
<pdfrwt beam="1">  1       21 0.11351865E+00 0.27038803E+03</pdfrwt>
<pdfrwt beam="2">  1       21 0.44985359E-01 0.27038803E+03</pdfrwt>
<totfact> 0.27053789E+03</totfact>
</mgrwt>
</event>
<event>
 6      1 +2.5168241e+02 2.81758300e+02 7.54677100e-03 1.03924000e-01
       21 -1    0    0  504  502 +0.0000000000e+00 +0.0000000000e+00 +2.0608353284e+03 2.0608353284e+03 0.0000000000e+00 0.0000e+00 1.0000e+00
       21 -1    0    0  501  503 -0.0000000000e+00 -0.0000000000e+00 -7.1039742949e+01 7.1039742949e+01 0.0000000000e+00 0.0000e+00 -1.0000e+00
        6  1    1    2  501    0 -1.4623232863e+02 -1.7288769365e+02 +3.2154450631e+02 4.2964394338e+02 1.7300000000e+02 0.0000e+00 -1.0000e+00
       -6  1    1    2    0  505 +1.1324144360e+02 +1.7624795202e+02 +1.3163780735e+03 1.3441232078e+03 1.7300000000e+02 0.0000e+00 1.0000e+00
       21  1    1    2  504  503 +3.3582730974e+01 -2.3965000039e+01 +1.6409593097e+02 1.6920282387e+02 0.0000000000e+00 0.0000e+00 1.0000e+00
       21  1    1    2  505  502 -5.9184594911e-01 +2.0604741669e+01 +1.8777707465e+02 1.8890509635e+02 0.0000000000e+00 0.0000e+00 -1.0000e+00
<mgrwt>
<rscale>  4 0.28175830E+03</rscale>
<asrwt>0</asrwt>
<pdfrwt beam="1">  1       21 0.31705154E+00 0.28175830E+03</pdfrwt>
<pdfrwt beam="2">  1       21 0.10929193E-01 0.28175830E+03</pdfrwt>
<totfact> 0.17123909E+03</totfact>
</mgrwt>
</event>
<event>
 6      1 +2.5168241e+02 1.76322500e+02 7.54677100e-03 1.16820100e-01
       21 -1    0    0  505  502 +0.0000000000e+00 +0.0000000000e+00 +6.6650222220e+02 6.6650222220e+02 0.0000000000e+00 0.0000e+00 -1.0000e+00
       21 -1    0    0  504  503 -0.0000000000e+00 -0.0000000000e+00 -6.3599763298e+02 6.3599763298e+02 0.0000000000e+00 0.0000e+00 -1.0000e+00
        6  1    1    2  501    0 +2.9627164672e+01 -1.3301243847e+01 +2.1632121099e+02 2.7888807486e+02 1.7300000000e+02 0.0000e+00 1.0000e+00
       -6  1    1    2    0  503 -2.4913384306e+01 +3.3585356324e+01 +6.1088419417e+01 1.8817398296e+02 1.7300000000e+02 0.0000e+00 -1.0000e+00
       21  1    1    2  504  502 +2.3071864328e+01 +4.6989081149e+00 -5.3972754937e+02 5.4024088906e+02 0.0000000000e+00 0.0000e+00 -1.0000e+00
       21  1    1    2  505  501 -2.7785644695e+01 -2.4983020592e+01 +2.9282250819e+02 2.9519690830e+02 0.0000000000e+00 0.0000e+00 -1.0000e+00
<mgrwt>
<rscale>  4 0.17632247E+03</rscale>
<asrwt>0</asrwt>
<pdfrwt beam="1">  1       21 0.10253880E+00 0.17632247E+03</pdfrwt>
<pdfrwt beam="2">  1       21 0.97845790E-01 0.17632247E+03</pdfrwt>
<totfact> 0.68062885E+02</totfact>
</mgrwt>
</event>
<event>
 6      1 +2.5168241e+02 1.78090000e+02 7.54677100e-03 1.16820100e-01
       21 -1    0    0  501  502 +0.0000000000e+00 +0.0000000000e+00 +2.4761609719e+02 2.4761609719e+02 0.0000000000e+00 0.0000e+00 1.0000e+00
       21 -1    0    0  504  503 -0.0000000000e+00 -0.0000000000e+00 -7.7020373838e+02 7.7020373838e+02 0.0000000000e+00 0.0000e+00 1.0000e+00
        6  1    1    2  501    0 -6.3302881386e+01 +6.3721732842e+00 -5.2499653747e+00 1.8440287829e+02 1.7300000000e+02 0.0000e+00 1.0000e+00
       -6  1    1    2    0  503 -1.9798009997e+01 +4.6241379892e+01 -2.8052358260e+02 3.3339572104e+02 1.7300000000e+02 0.0000e+00 -1.0000e+00
       21  1    1    2  504  505 +7.9206339368e+01 -8.0447001628e+01 -3.5812455874e+02 3.7549775477e+02 0.0000000000e+00 0.0000e+00 1.0000e+00
       21  1    1    2  505  502 +3.8945520150e+00 +2.7833448451e+01 +1.2131046553e+02 1.2452348146e+02 0.0000000000e+00 0.0000e+00 1.0000e+00
<mgrwt>
<rscale>  4 0.17809004E+03</rscale>
<asrwt>0</asrwt>
<pdfrwt beam="1">  1       21 0.38094784E-01 0.17809004E+03</pdfrwt>
<pdfrwt beam="2">  1       21 0.11849288E+00 0.17809004E+03</pdfrwt>
<totfact> 0.36670084E+03</totfact>
</mgrwt>
</event>
<event>
 6      1 +2.5168241e+02 1.81743400e+02 7.54677100e-03 1.09842800e-01
       21 -1    0    0  501  502 +0.0000000000e+00 +0.0000000000e+00 +1.6748336251e+02 1.6748336251e+02 0.0000000000e+00 0.0000e+00 1.0000e+00
       21 -1    0    0  505  503 -0.0000000000e+00 -0.0000000000e+00 -4.3656612471e+02 4.3656612471e+02 0.0000000000e+00 0.0000e+00 1.0000e+00
        6  1    1    2  501    0 +8.0736461616e-01 +1.4219143631e+01 -2.9371408307e+01 1.7605259302e+02 1.7300000000e+02 0.0000e+00 1.0000e+00
       -6  1    1    2    0  504 -4.1610587958e+00 -7.5214484049e+01 -2.2143358435e+02 2.9092329797e+02 1.7300000000e+02 0.0000e+00 1.0000e+00
       21  1    1    2  504  503 -5.4192534035e+01 +3.8751960469e+01 -3.1940598907e+01 7.3883334006e+01 0.0000000000e+00 0.0000e+00 -1.0000e+00
       21  1    1    2  505  502 +5.7546228215e+01 +2.2243379950e+01 +1.3662829371e+01 6.3190262223e+01 0.0000000000e+00 0.0000e+00 -1.0000e+00
<mgrwt>
<rscale>  4 0.18174337E+03</rscale>
<asrwt>0</asrwt>
<pdfrwt beam="1">  1       21 0.25766671E-01 0.18174337E+03</pdfrwt>
<pdfrwt beam="2">  1       21 0.67164019E-01 0.18174337E+03</pdfrwt>
<totfact> 0.29183710E+04</totfact>
</mgrwt>
</event>
<event>
 6      1 +2.5168241e+02 2.02095500e+02 7.54677100e-03 1.16820100e-01
       21 -1    0    0  504  502 +0.0000000000e+00 +0.0000000000e+00 +3.4448729235e+02 3.4448729235e+02 0.0000000000e+00 0.0000e+00 -1.0000e+00
       21 -1    0    0  501  503 -0.0000000000e+00 -0.0000000000e+00 -2.9216638442e+02 2.9216638442e+02 0.0000000000e+00 0.0000e+00 -1.0000e+00
        6  1    1    2  501    0 +2.6099553061e+01 -9.2074352298e+01 -6.1051268288e+01 2.0691817315e+02 1.7300000000e+02 0.0000e+00 1.0000e+00
       -6  1    1    2    0  505 -1.2534939142e+02 +3.5523390502e+01 +2.3266191390e+01 2.1781803613e+02 1.7300000000e+02 0.0000e+00 -1.0000e+00
       21  1    1    2  504  503 +9.7387264956e+01 +2.2337826805e+01 -1.5301292225e+01 1.0108109332e+02 0.0000000000e+00 0.0000e+00 -1.0000e+00
       21  1    1    2  505  502 +1.8625734026e+00 +3.4213134991e+01 +1.0540727705e+02 1.1083637418e+02 0.0000000000e+00 0.0000e+00 -1.0000e+00
<mgrwt>
<rscale>  4 0.20209554E+03</rscale>
<asrwt>0</asrwt>
<pdfrwt beam="1">  1       21 0.52998045E-01 0.20209554E+03</pdfrwt>
<pdfrwt beam="2">  1       21 0.44948675E-01 0.20209554E+03</pdfrwt>
<totfact> 0.15925652E+04</totfact>
</mgrwt>
</event>
<event>
 6      1 +2.5168241e+02 1.87228600e+02 7.54677100e-03 1.17132900e-01
       21 -1    0    0  503  502 +0.0000000000e+00 +0.0000000000e+00 +2.1981145144e+02 2.1981145144e+02 0.0000000000e+00 0.0000e+00 1.0000e+00
       21 -1    0    0  504  503 -0.0000000000e+00 -0.0000000000e+00 -1.3116611160e+03 1.3116611160e+03 0.0000000000e+00 0.0000e+00 1.0000e+00
        6  1    1    2  501    0 -5.5486644502e+01 -8.8557354368e+01 -1.3313100863e+02 2.4202073917e+02 1.7300000000e+02 0.0000e+00 1.0000e+00
       -6  1    1    2    0  505 -3.0397532354e+01 +6.6040066058e+01 -1.0237894521e+03 1.0408453980e+03 1.7300000000e+02 0.0000e+00 1.0000e+00
       21  1    1    2  504  501 +5.2632549532e+01 +4.4261941196e+01 -7.5737162891e+01 1.0230064785e+02 0.0000000000e+00 0.0000e+00 1.0000e+00
       21  1    1    2  505  502 +3.3251627325e+01 -2.1744652887e+01 +1.4080795904e+02 1.4630578244e+02 0.0000000000e+00 0.0000e+00 1.0000e+00
<mgrwt>
<rscale>  4 0.18722858E+03</rscale>
<asrwt>0</asrwt>
<pdfrwt beam="1">  1       21 0.33817146E-01 0.18722858E+03</pdfrwt>
<pdfrwt beam="2">  1       21 0.20179402E+00 0.18722858E+03</pdfrwt>
<totfact> 0.11083680E+03</totfact>
</mgrwt>
</event>
<event>
 6      1 +2.5168241e+02 1.74579500e+02 7.54677100e-03 1.16820100e-01
       21 -1    0    0  505  502 +0.0000000000e+00 +0.0000000000e+00 +7.2790772727e+01 7.2790772727e+01 0.0000000000e+00 0.0000e+00 1.0000e+00
       21 -1    0    0  501  503 -0.0000000000e+00 -0.0000000000e+00 -1.4162747889e+03 1.4162747889e+03 0.0000000000e+00 0.0000e+00 1.0000e+00
        6  1    1    2  501    0 -1.1698885940e+01 -1.7225548322e+01 -6.7401723067e+02 6.9617656574e+02 1.7300000000e+02 0.0000e+00 1.0000e+00
       -6  1    1    2    0  502 -4.2440890871e+01 -6.4477518560e+01 -1.4638203289e+02 2.3940609677e+02 1.7300000000e+02 0.0000e+00 1.0000e+00
       21  1    1    2  504  503 +4.2419885414e+01 +1.5814174918e+01 -4.5765709484e+02 4.5989080363e+02 0.0000000000e+00 0.0000e+00 1.0000e+00
       21  1    1    2  505  504 +1.1719891398e+01 +6.5888891964e+01 -6.5427657821e+01 9.3592095535e+01 0.0000000000e+00 0.0000e+00 1.0000e+00
<mgrwt>
<rscale>  4 0.17457952E+03</rscale>
<asrwt>0</asrwt>
<pdfrwt beam="1">  1       21 0.11198582E-01 0.17457952E+03</pdfrwt>
<pdfrwt beam="2">  1       21 0.21788840E+00 0.17457952E+03</pdfrwt>
<totfact> 0.70011008E+03</totfact>
</mgrwt>
</event>
<event>
 6      1 +2.5168241e+02 2.86337300e+02 7.54677100e-03 1.11471900e-01
       21 -1    0    0  503  502 +0.0000000000e+00 +0.0000000000e+00 +2.8637101248e+02 2.8637101248e+02 0.0000000000e+00 0.0000e+00 1.0000e+00
       21 -1    0    0  501  503 -0.0000000000e+00 -0.0000000000e+00 -1.4075486673e+03 1.4075486673e+03 0.0000000000e+00 0.0000e+00 1.0000e+00
        6  1    1    2  501    0 +8.1452034160e+01 +2.4654280131e+01 -3.2277041547e+02 3.7596809506e+02 1.7300000000e+02 0.0000e+00 1.0000e+00
       -6  1    1    2    0  504 +6.3414608404e+01 -7.5454813499e+01 -3.9495388235e+02 4.4230352770e+02 1.7300000000e+02 0.0000e+00 1.0000e+00
       21  1    1    2  504  505 -5.7498888709e+01 -1.8489694384e+02 -5.5109839155e+02 5.8412536258e+02 0.0000000000e+00 0.0000e+00 1.0000e+00
       21  1    1    2  505  502 -8.7367753855e+01 +2.3569747721e+02 +1.4764503451e+02 2.9152269447e+02 0.0000000000e+00 0.0000e+00 1.0000e+00
<mgrwt>
<rscale>  4 0.25937872E+03</rscale>
<asrwt>0</asrwt>
<pdfrwt beam="1">  1       21 0.44057079E-01 0.28633728E+03</pdfrwt>
<pdfrwt beam="2">  1       21 0.21654595E+00 0.28633728E+03</pdfrwt>
<totfact> 0.47486484E+02</totfact>
</mgrwt>
</event>
<event>
 6      1 +2.5168241e+02 1.92417600e+02 7.54677100e-03 1.03924000e-01
       21 -1    0    0  504  502 +0.0000000000e+00 +0.0000000000e+00 +3.6469063173e+02 3.6469063173e+02 0.0000000000e+00 0.0000e+00 -1.0000e+00
       21 -1    0    0  501  503 -0.0000000000e+00 -0.0000000000e+00 -3.1865867724e+02 3.1865867724e+02 0.0000000000e+00 0.0000e+00 -1.0000e+00
        6  1    1    2  501    0 -6.8688820126e+01 -2.9221363279e+01 -1.7252692851e+02 2.5547325329e+02 1.7300000000e+02 0.0000e+00 -1.0000e+00
       -6  1    1    2    0  505 +7.9742069660e+01 +8.4658612900e+01 +1.4300124838e+01 2.0894825192e+02 1.7300000000e+02 0.0000e+00 -1.0000e+00
       21  1    1    2  504  503 -3.3419328674e+01 -3.1263465479e+01 +1.2397817091e+02 1.3215461651e+02 0.0000000000e+00 0.0000e+00 -1.0000e+00
       21  1    1    2  505  502 +2.2366079139e+01 -2.4173784141e+01 +8.0280587259e+01 8.6773187255e+01 0.0000000000e+00 0.0000e+00 1.0000e+00
<mgrwt>
<rscale>  4 0.19241765E+03</rscale>
<asrwt>0</asrwt>
<pdfrwt beam="1">  1       21 0.56106251E-01 0.19241765E+03</pdfrwt>
<pdfrwt beam="2">  1       21 0.49024412E-01 0.19241765E+03</pdfrwt>
<totfact> 0.11874074E+04</totfact>
</mgrwt>
</event>
<event>
 6      1 +2.5168241e+02 1.77009000e+02 7.54677100e-03 1.11471900e-01
       21 -1    0    0  503  502 +0.0000000000e+00 +0.0000000000e+00 +1.9849488555e+02 1.9849488555e+02 0.0000000000e+00 0.0000e+00 -1.0000e+00
       21 -1    0    0  501  503 -0.0000000000e+00 -0.0000000000e+00 -4.6151980295e+02 4.6151980295e+02 0.0000000000e+00 0.0000e+00 -1.0000e+00
        6  1    1    2  501    0 -3.7391893539e+01 +1.2631558902e+01 -2.8939325428e+02 3.3946305485e+02 1.7300000000e+02 0.0000e+00 -1.0000e+00
       -6  1    1    2    0  504 +3.6115753377e+01 +7.4793073521e+01 +7.3924462552e+00 1.9204686863e+02 1.7300000000e+02 0.0000e+00 -1.0000e+00
       21  1    1    2  504  505 -2.6273539746e+01 -8.1865181160e+01 -1.1849090410e+01 8.6790596960e+01 0.0000000000e+00 0.0000e+00 1.0000e+00
       21  1    1    2  505  502 +2.7549679908e+01 -5.5594512629e+00 +3.0824981038e+01 4.1714168065e+01 0.0000000000e+00 0.0000e+00 -1.0000e+00
<mgrwt>
<rscale>  4 0.17700903E+03</rscale>
<asrwt>0</asrwt>
<pdfrwt beam="1">  1       21 0.30537675E-01 0.17700903E+03</pdfrwt>
<pdfrwt beam="2">  1       21 0.71003045E-01 0.17700903E+03</pdfrwt>
<totfact> 0.18661284E+04</totfact>
</mgrwt>
</event>
<event>
 6      1 +2.5168241e+02 1.76099800e+02 7.54677100e-03 1.11671100e-01
       21 -1    0    0  503  502 +0.0000000000e+00 +0.0000000000e+00 +3.1594647440e+02 3.1594647440e+02 0.0000000000e+00 0.0000e+00 -1.0000e+00
       21 -1    0    0  501  503 -0.0000000000e+00 -0.0000000000e+00 -1.0321331416e+03 1.0321331416e+03 0.0000000000e+00 0.0000e+00 -1.0000e+00
        6  1    1    2  501    0 +1.7597639721e+01 +3.0301625337e+01 -8.7363117134e+02 8.9128462847e+02 1.7300000000e+02 0.0000e+00 -1.0000e+00
       -6  1    1    2    0  504 -4.8506299355e+01 +1.1677586134e+01 -8.3570829024e+01 1.9850015254e+02 1.7300000000e+02 0.0000e+00 -1.0000e+00
       21  1    1    2  504  505 +4.0230974175e+01 +4.8650676698e+00 +1.5159406311e+02 1.5691704859e+02 0.0000000000e+00 0.0000e+00 -1.0000e+00
       21  1    1    2  505  502 -9.3223145417e+00 -4.6844279141e+01 +8.9421270050e+01 1.0137778639e+02 0.0000000000e+00 0.0000e+00 -1.0000e+00
<mgrwt>
<rscale>  4 0.17609982E+03</rscale>
<asrwt>0</asrwt>
<pdfrwt beam="1">  1       21 0.48607150E-01 0.17609982E+03</pdfrwt>
<pdfrwt beam="2">  1       21 0.15878971E+00 0.17609982E+03</pdfrwt>
<totfact> 0.10571443E+03</totfact>
</mgrwt>
</event>
<event>
 6      1 +2.5168241e+02 1.76780200e+02 7.54677100e-03 1.16820100e-01
       21 -1    0    0  505  502 +0.0000000000e+00 +0.0000000000e+00 +1.9764433029e+02 1.9764433029e+02 0.0000000000e+00 0.0000e+00 -1.0000e+00
       21 -1    0    0  504  503 -0.0000000000e+00 -0.0000000000e+00 -1.8575919412e+03 1.8575919412e+03 0.0000000000e+00 0.0000e+00 1.0000e+00
        6  1    1    2  501    0 -4.3685631505e+00 -2.5526627922e+01 -8.2423471485e+01 1.9337352903e+02 1.7300000000e+02 0.0000e+00 1.0000e+00
       -6  1    1    2    0  503 -5.7068908295e+01 +1.6494172947e+02 -1.0136346033e+03 1.0429989182e+03 1.7300000000e+02 0.0000e+00 1.0000e+00
       21  1    1    2  504  502 +4.5571463090e+01 -1.5230359204e+02 -6.8134355261e+02 6.9964432327e+02 0.0000000000e+00 0.0000e+00 1.0000e+00
       21  1    1    2  505  501 +1.5866008355e+01 +1.2888490495e+01 +1.1745401652e+02 1.1921950094e+02 0.0000000000e+00 0.0000e+00 -1.0000e+00
<mgrwt>
<rscale>  4 0.17678020E+03</rscale>
<asrwt>0</asrwt>
<pdfrwt beam="1">  1       21 0.30406820E-01 0.17678020E+03</pdfrwt>
<pdfrwt beam="2">  1       21 0.28578337E+00 0.17678020E+03</pdfrwt>
<totfact> 0.43804430E+02</totfact>
</mgrwt>
</event>
<event>
 6      1 +2.5168241e+02 1.78889700e+02 7.54677100e-03 1.12989000e-01
       21 -1    0    0  503  502 +0.0000000000e+00 +0.0000000000e+00 +1.0741604025e+02 1.0741604025e+02 0.0000000000e+00 0.0000e+00 -1.0000e+00
       21 -1    0    0  504  503 -0.0000000000e+00 -0.0000000000e+00 -1.2280741370e+03 1.2280741370e+03 0.0000000000e+00 0.0000e+00 -1.0000e+00
        6  1    1    2  501    0 -5.4537215689e+01 -1.0325115726e+01 -3.2986471892e+01 1.8465650066e+02 1.7300000000e+02 0.0000e+00 1.0000e+00
       -6  1    1    2    0  502 +2.4190708805e+01 -2.8885534783e+01 -2.2628368688e+02 2.8732015499e+02 1.7300000000e+02 0.0000e+00 1.0000e+00
       21  1    1    2  504  505 +9.6644266709e+00 +3.8042242322e+01 -5.0425058461e+02 5.0577590436e+02 0.0000000000e+00 0.0000e+00 -1.0000e+00
       21  1    1    2  505  501 +2.0682080213e+01 +1.1684081870e+00 -3.5713735333e+02 3.5773761721e+02 0.0000000000e+00 0.0000e+00 -1.0000e+00
<mgrwt>
<rscale>  4 0.17888970E+03</rscale>
<asrwt>0</asrwt>
<pdfrwt beam="1">  1       21 0.16525546E-01 0.17888970E+03</pdfrwt>
<pdfrwt beam="2">  1       21 0.18893447E+00 0.17888970E+03</pdfrwt>
<totfact> 0.52757835E+03</totfact>
</mgrwt>
</event>
<event>
 6      1 +2.5168241e+02 1.73794400e+02 7.54677100e-03 1.03924000e-01
       21 -1    0    0  504  502 +0.0000000000e+00 +0.0000000000e+00 +1.0296588154e+03 1.0296588154e+03 0.0000000000e+00 0.0000e+00 1.0000e+00
       21 -1    0    0  501  503 -0.0000000000e+00 -0.0000000000e+00 -4.7168632191e+02 4.7168632191e+02 0.0000000000e+00 0.0000e+00 1.0000e+00
        6  1    1    2  501    0 +9.2767876930e+01 +6.9946814273e+01 -1.7230806285e+02 2.7040248582e+02 1.7300000000e+02 0.0000e+00 1.0000e+00
       -6  1    1    2    0  505 +3.8728251616e+01 +3.8754335503e+01 -2.0508585971e+02 2.7384482074e+02 1.7300000000e+02 0.0000e+00 -1.0000e+00
       21  1    1    2  504  503 -1.2577002610e+02 -4.0565201165e+01 +6.8087745288e+02 6.9358326166e+02 0.0000000000e+00 0.0000e+00 1.0000e+00
       21  1    1    2  505  502 -5.7261024426e+00 -6.8135948610e+01 +2.5448896315e+02 2.6351456906e+02 0.0000000000e+00 0.0000e+00 1.0000e+00
<mgrwt>
<rscale>  4 0.17379444E+03</rscale>
<asrwt>0</asrwt>
<pdfrwt beam="1">  1       21 0.15840905E+00 0.17379444E+03</pdfrwt>
<pdfrwt beam="2">  1       21 0.72567127E-01 0.17379444E+03</pdfrwt>
<totfact> 0.45273562E+02</totfact>
</mgrwt>
</event>
<event>
 6      1 +2.5168241e+02 1.88355400e+02 7.54677100e-03 1.07064900e-01
       21 -1    0    0  501  502 +0.0000000000e+00 +0.0000000000e+00 +2.3963197944e+02 2.3963197944e+02 0.0000000000e+00 0.0000e+00 -1.0000e+00
       21 -1    0    0  504  503 -0.0000000000e+00 -0.0000000000e+00 -5.9116575097e+02 5.9116575097e+02 0.0000000000e+00 0.0000e+00 -1.0000e+00
        6  1    1    2  501    0 -5.0100152478e+01 -5.0423093072e+01 +1.5905474637e+02 2.4551970580e+02 1.7300000000e+02 0.0000e+00 -1.0000e+00
       -6  1    1    2    0  503 +4.4590081310e+01 +1.0597219368e+02 -3.9636467944e+02 4.4749563159e+02 1.7300000000e+02 0.0000e+00 -1.0000e+00
       21  1    1    2  504  505 -1.7112124432e+01 -4.8062168085e+01 -9.1997669562e+01 1.0519680608e+02 0.0000000000e+00 0.0000e+00 1.0000e+00
       21  1    1    2  505  502 +2.2622195601e+01 -7.4869325204e+00 -2.2226168896e+01 3.2585586939e+01 0.0000000000e+00 0.0000e+00 -1.0000e+00
<mgrwt>
<rscale>  4 0.18835541E+03</rscale>
<asrwt>0</asrwt>
<pdfrwt beam="1">  1       21 0.36866459E-01 0.18835541E+03</pdfrwt>
<pdfrwt beam="2">  1       21 0.90948577E-01 0.18835541E+03</pdfrwt>
<totfact> 0.72992150E+03</totfact>
</mgrwt>
</event>
<event>
 6      1 +2.5168241e+02 2.01581800e+02 7.54677100e-03 1.17132900e-01
       21 -1    0    0  505  502 +0.0000000000e+00 +0.0000000000e+00 +1.6590666244e+02 1.6590666244e+02 0.0000000000e+00 0.0000e+00 1.0000e+00
       21 -1    0    0  504  503 -0.0000000000e+00 -0.0000000000e+00 -4.4180283593e+02 4.4180283593e+02 0.0000000000e+00 0.0000e+00 -1.0000e+00
        6  1    1    2  501    0 +5.3687469556e+01 -6.6702856152e+01 -8.7712762863e+01 2.1202392359e+02 1.7300000000e+02 0.0000e+00 1.0000e+00
       -6  1    1    2    0  502 -4.1775070556e+01 +1.1493207968e+02 -5.9600627933e+01 2.2008129023e+02 1.7300000000e+02 0.0000e+00 -1.0000e+00
       21  1    1    2  504  501 +1.4049458806e+01 -5.5702497850e+01 -1.3596060801e+02 1.4759892442e+02 0.0000000000e+00 0.0000e+00 1.0000e+00
       21  1    1    2  505  503 -2.5961857807e+01 +7.4732743180e+00 +7.3778253043e+00 2.8005360130e+01 0.0000000000e+00 0.0000e+00 1.0000e+00
<mgrwt>
<rscale>  4 0.20158177E+03</rscale>
<asrwt>0</asrwt>
<pdfrwt beam="1">  1       21 0.25524102E-01 0.20158177E+03</pdfrwt>
<pdfrwt beam="2">  1       21 0.67969667E-01 0.20158177E+03</pdfrwt>
<totfact> 0.28634238E+04</totfact>
</mgrwt>
</event>
<event>
 6      1 +2.5168241e+02 2.71245800e+02 7.54677100e-03 1.07064900e-01
       21 -1    0    0  505  502 +0.0000000000e+00 +0.0000000000e+00 +4.7015529400e+02 4.7015529400e+02 0.0000000000e+00 0.0000e+00 -1.0000e+00
       21 -1    0    0  504  503 -0.0000000000e+00 -0.0000000000e+00 -1.1096314170e+03 1.1096314170e+03 0.0000000000e+00 0.0000e+00 1.0000e+00
        6  1    1    2  501    0 -1.7205912008e+02 -5.3371748815e+01 -3.8021784426e+02 4.5491482001e+02 1.7300000000e+02 0.0000e+00 1.0000e+00
       -6  1    1    2    0  503 +2.1794355538e+02 +8.0926034902e+01 -6.5964795899e+02 7.2049486206e+02 1.7300000000e+02 0.0000e+00 1.0000e+00
       21  1    1    2  504  502 -2.1497281521e+01 -1.4867168379e+01 +2.6078341733e+02 2.6208997799e+02 0.0000000000e+00 0.0000e+00 -1.0000e+00
       21  1    1    2  505  501 -2.4387153778e+01 -1.2687117707e+01 +1.3960626290e+02 1.4228705095e+02 0.0000000000e+00 0.0000e+00 -1.0000e+00
<mgrwt>
<rscale>  4 0.27124584E+03</rscale>
<asrwt>0</asrwt>
<pdfrwt beam="1">  1       21 0.72331583E-01 0.27124584E+03</pdfrwt>
<pdfrwt beam="2">  1       21 0.17071253E+00 0.27124584E+03</pdfrwt>
<totfact> 0.33516021E+02</totfact>
</mgrwt>
</event>
<event>
 6      1 +2.5168241e+02 1.95691000e+02 7.54677100e-03 1.11910500e-01
       21 -1    0    0  501  502 +0.0000000000e+00 +0.0000000000e+00 +4.6118536570e+02 4.6118536570e+02 0.0000000000e+00 0.0000e+00 -1.0000e+00
       21 -1    0    0  505  503 -0.0000000000e+00 -0.0000000000e+00 -1.2852457228e+03 1.2852457228e+03 0.0000000000e+00 0.0000e+00 1.0000e+00
        6  1    1    2  501    0 -1.1027499878e+02 -2.3462040779e+01 +2.1889208949e+02 3.0092156712e+02 1.7300000000e+02 0.0000e+00 -1.0000e+00
       -6  1    1    2    0  504 +5.1175791443e+01 -1.0978599700e+02 +1.3531298820e+02 2.5081971921e+02 1.7300000000e+02 0.0000e+00 1.0000e+00
       21  1    1    2  504  503 +1.2774143263e+01 -2.6697948173e+01 -2.3258756263e+02 2.3446307484e+02 0.0000000000e+00 0.0000e+00 -1.0000e+00
       21  1    1    2  505  502 +4.6325064079e+01 +1.5994598595e+02 -9.4567787219e+02 9.6022672736e+02 0.0000000000e+00 0.0000e+00 1.0000e+00
<mgrwt>
<rscale>  4 0.19569096E+03</rscale>
<asrwt>0</asrwt>
<pdfrwt beam="1">  1       21 0.70951596E-01 0.19569096E+03</pdfrwt>
<pdfrwt beam="2">  1       21 0.19773011E+00 0.19569096E+03</pdfrwt>
<totfact> 0.24876524E+02</totfact>
</mgrwt>
</event>
<event>
 6      1 +2.5168241e+02 2.21347300e+02 7.54677100e-03 1.07240600e-01
       21 -1    0    0  505  502 +0.0000000000e+00 +0.0000000000e+00 +2.8768728467e+02 2.8768728467e+02 0.0000000000e+00 0.0000e+00 1.0000e+00
       21 -1    0    0  504  503 -0.0000000000e+00 -0.0000000000e+00 -4.1889221233e+02 4.1889221233e+02 0.0000000000e+00 0.0000e+00 1.0000e+00
        6  1    1    2  501    0 -8.5554650554e+01 +1.1211770916e+02 -2.0839486266e+02 3.0536436878e+02 1.7300000000e+02 0.0000e+00 1.0000e+00
       -6  1    1    2    0  502 +5.6006382530e+01 -1.2626354085e+02 +1.7992531272e+02 2.8527410466e+02 1.7300000000e+02 0.0000e+00 1.0000e+00
       21  1    1    2  504  501 +2.2979234674e+01 -1.2565259235e+01 -5.2363339096e+01 5.8547845794e+01 0.0000000000e+00 0.0000e+00 1.0000e+00
       21  1    1    2  505  503 +6.5690333497e+00 +2.6711090928e+01 -5.0372038628e+01 5.7393177758e+01 0.0000000000e+00 0.0000e+00 -1.0000e+00
<mgrwt>
<rscale>  4 0.22134728E+03</rscale>
<asrwt>0</asrwt>
<pdfrwt beam="1">  1       21 0.44259582E-01 0.22134728E+03</pdfrwt>
<pdfrwt beam="2">  1       21 0.64444956E-01 0.22134728E+03</pdfrwt>
<totfact> 0.10683132E+04</totfact>
</mgrwt>
</event>
<event>
 6      1 +2.5168241e+02 1.87346800e+02 7.54677100e-03 1.07064900e-01
       21 -1    0    0  501  502 +0.0000000000e+00 +0.0000000000e+00 +2.0333120328e+02 2.0333120328e+02 0.0000000000e+00 0.0000e+00 1.0000e+00
       21 -1    0    0  504  503 -0.0000000000e+00 -0.0000000000e+00 -3.7579831784e+02 3.7579831784e+02 0.0000000000e+00 0.0000e+00 1.0000e+00
        6  1    1    2  501    0 -2.7522691090e+01 -1.0516886467e+02 -6.8629445339e+01 2.1553883499e+02 1.7300000000e+02 0.0000e+00 1.0000e+00
       -6  1    1    2    0  503 +4.3591542560e+01 +3.7969442268e+01 -1.7912715856e+02 2.5565101224e+02 1.7300000000e+02 0.0000e+00 1.0000e+00
       21  1    1    2  504  505 -1.1749703456e+01 +4.0199413186e+01 +2.0331929064e+01 4.6555726729e+01 0.0000000000e+00 0.0000e+00 1.0000e+00
       21  1    1    2  505  502 -4.3191480133e+00 +2.7000009218e+01 +5.4957560276e+01 6.1383947160e+01 0.0000000000e+00 0.0000e+00 -1.0000e+00
<mgrwt>
<rscale>  4 0.18734682E+03</rscale>
<asrwt>0</asrwt>
<pdfrwt beam="1">  1       21 0.31281724E-01 0.18734682E+03</pdfrwt>
<pdfrwt beam="2">  1       21 0.57815126E-01 0.18734682E+03</pdfrwt>
<totfact> 0.27628625E+04</totfact>
</mgrwt>
</event>
<event>
 6      1 +2.5168241e+02 2.18861200e+02 7.54677100e-03 1.17132900e-01
       21 -1    0    0  503  502 +0.0000000000e+00 +0.0000000000e+00 +8.4967293386e+01 8.4967293386e+01 0.0000000000e+00 0.0000e+00 -1.0000e+00
       21 -1    0    0  504  503 -0.0000000000e+00 -0.0000000000e+00 -1.7039009079e+03 1.7039009079e+03 0.0000000000e+00 0.0000e+00 -1.0000e+00
        6  1    1    2  501    0 -7.0295493480e+00 -1.1991239726e+02 -1.7210419791e+02 2.7198759626e+02 1.7300000000e+02 0.0000e+00 -1.0000e+00
       -6  1    1    2    0  505 +6.3617035923e+01 +1.0926623688e+02 -7.9142232358e+02 8.1991739343e+02 1.7300000000e+02 0.0000e+00 -1.0000e+00
       21  1    1    2  504  501 +2.4756538482e+01 +1.4011341415e+01 -5.9476908079e+02 5.9544895948e+02 0.0000000000e+00 0.0000e+00 -1.0000e+00
       21  1    1    2  505  502 -8.1344025057e+01 -3.3651810343e+00 -6.0638012239e+01 1.0151425212e+02 0.0000000000e+00 0.0000e+00 -1.0000e+00
<mgrwt>
<rscale>  4 0.21886117E+03</rscale>
<asrwt>0</asrwt>
<pdfrwt beam="1">  1       21 0.13071891E-01 0.21886117E+03</pdfrwt>
<pdfrwt beam="2">  1       21 0.26213860E+00 0.21886117E+03</pdfrwt>
<totfact> 0.27624218E+03</totfact>
</mgrwt>
</event>
<event>
 6      1 +2.5168241e+02 2.01897100e+02 7.54677100e-03 1.03924000e-01
       21 -1    0    0  504  502 +0.0000000000e+00 +0.0000000000e+00 +2.9974729444e+02 2.9974729444e+02 0.0000000000e+00 0.0000e+00 -1.0000e+00
       21 -1    0    0  501  503 -0.0000000000e+00 -0.0000000000e+00 -2.5499599543e+02 2.5499599543e+02 0.0000000000e+00 0.0000e+00 1.0000e+00
        6  1    1    2  501    0 -1.1221946058e+02 +1.8441622024e+01 -9.1748349224e+01 2.2645101091e+02 1.7300000000e+02 0.0000e+00 1.0000e+00
       -6  1    1    2    0  505 +9.1086604558e+01 +1.8327259109e+01 +1.4757895989e+01 1.9692499448e+02 1.7300000000e+02 0.0000e+00 1.0000e+00
       21  1    1    2  504  503 +5.6600261410e+00 -2.2390086406e+01 +9.2216742979e+01 9.5064607246e+01 0.0000000000e+00 0.0000e+00 -1.0000e+00
       21  1    1    2  505  502 +1.5472829879e+01 -1.4378794727e+01 +2.9525009268e+01 3.6302677236e+01 0.0000000000e+00 0.0000e+00 -1.0000e+00
<mgrwt>
<rscale>  4 0.20189709E+03</rscale>
<asrwt>0</asrwt>
<pdfrwt beam="1">  1       21 0.46114969E-01 0.20189709E+03</pdfrwt>
<pdfrwt beam="2">  1       21 0.39230153E-01 0.20189709E+03</pdfrwt>
<totfact> 0.28081598E+04</totfact>
</mgrwt>
</event>
<event>
 6      1 +2.5168241e+02 2.52390600e+02 7.54677100e-03 1.17132900e-01
       21 -1    0    0  505  502 +0.0000000000e+00 +0.0000000000e+00 +8.1903191869e+02 8.1903191869e+02 0.0000000000e+00 0.0000e+00 -1.0000e+00
       21 -1    0    0  504  503 -0.0000000000e+00 -0.0000000000e+00 -2.2406257302e+02 2.2406257302e+02 0.0000000000e+00 0.0000e+00 -1.0000e+00
        6  1    1    2  501    0 +2.2183605341e+02 -5.5769882600e+01 +5.5636475665e+01 2.9214026053e+02 1.7300000000e+02 0.0000e+00 -1.0000e+00
       -6  1    1    2    0  502 -1.2528489627e+02 +5.7005031640e+01 +5.2480182491e+02 5.6946627143e+02 1.7300000000e+02 0.0000e+00 -1.0000e+00
       21  1    1    2  504  501 -5.6569242524e+01 -3.3746737958e+01 -6.1182654964e+01 8.9901272466e+01 0.0000000000e+00 0.0000e+00 -1.0000e+00
       21  1    1    2  505  503 -3.9981914613e+01 +3.2511588918e+01 +7.5713700066e+01 9.1586687285e+01 0.0000000000e+00 0.0000e+00 -1.0000e+00
<mgrwt>
<rscale>  4 0.25239057E+03</rscale>
<asrwt>0</asrwt>
<pdfrwt beam="1">  1       21 0.12600491E+00 0.25239057E+03</pdfrwt>
<pdfrwt beam="2">  1       21 0.34471165E-01 0.25239057E+03</pdfrwt>
<totfact> 0.36231621E+03</totfact>
</mgrwt>
</event>
<event>
 6      1 +2.5168241e+02 1.77108400e+02 7.54677100e-03 1.03924000e-01
       21 -1    0    0  504  502 +0.0000000000e+00 +0.0000000000e+00 +8.2684243435e+02 8.2684243435e+02 0.0000000000e+00 0.0000e+00 -1.0000e+00
       21 -1    0    0  501  503 -0.0000000000e+00 -0.0000000000e+00 -3.5539649966e+02 3.5539649966e+02 0.0000000000e+00 0.0000e+00 -1.0000e+00
        6  1    1    2  501    0 +3.0833725946e-01 -2.5826893383e+01 -2.3181219750e+02 2.9040147796e+02 1.7300000000e+02 0.0000e+00 -1.0000e+00
       -6  1    1    2    0  505 -5.1937921052e+01 +7.2124235104e+01 +1.1467446968e+01 1.9483314726e+02 1.7300000000e+02 0.0000e+00 1.0000e+00
       21  1    1    2  504  503 +1.5808253347e+01 -2.9565213854e+01 +1.4672326277e+02 1.5050487893e+02 0.0000000000e+00 0.0000e+00 -1.0000e+00
       21  1    1    2  505  502 +3.5821330446e+01 -1.6732127867e+01 +5.4506742245e+02 5.4649942986e+02 0.0000000000e+00 0.0000e+00 -1.0000e+00
<mgrwt>
<rscale>  4 0.17710839E+03</rscale>
<asrwt>0</asrwt>
<pdfrwt beam="1">  1       21 0.12720653E+00 0.17710839E+03</pdfrwt>
<pdfrwt beam="2">  1       21 0.54676385E-01 0.17710839E+03</pdfrwt>
<totfact> 0.14646816E+03</totfact>
</mgrwt>
</event>
<event>
 6      1 +2.5168241e+02 1.87615400e+02 7.54677100e-03 1.04003000e-01
       21 -1    0    0  504  502 +0.0000000000e+00 +0.0000000000e+00 +2.1519372828e+02 2.1519372828e+02 0.0000000000e+00 0.0000e+00 1.0000e+00
       21 -1    0    0  505  503 -0.0000000000e+00 -0.0000000000e+00 -5.7514647638e+02 5.7514647638e+02 0.0000000000e+00 0.0000e+00 1.0000e+00
        6  1    1    2  501    0 -9.9296407032e+01 -3.9034075926e+01 +5.6585952639e+01 2.1098437281e+02 1.7300000000e+02 0.0000e+00 1.0000e+00
       -6  1    1    2    0  503 +7.5945812971e+00 -6.1372684821e+01 -1.3603228415e+02 2.2860023281e+02 1.7300000000e+02 0.0000e+00 1.0000e+00
       21  1    1    2  504  501 +3.5691994051e+01 +2.8203379916e+01 -2.5046652129e+02 2.5456399464e+02 0.0000000000e+00 0.0000e+00 1.0000e+00
       21  1    1    2  505  502 +5.6009831684e+01 +7.2203380831e+01 -3.0039895297e+01 9.6191604405e+01 0.0000000000e+00 0.0000e+00 -1.0000e+00
<mgrwt>
<rscale>  4 0.18761536E+03</rscale>
<asrwt>0</asrwt>
<pdfrwt beam="1">  1       21 0.33106728E-01 0.18761536E+03</pdfrwt>
<pdfrwt beam="2">  1       21 0.88484072E-01 0.18761536E+03</pdfrwt>
<totfact> 0.96323056E+03</totfact>
</mgrwt>
</event>
<event>
 6      1 +2.5168241e+02 1.79925500e+02 7.54677100e-03 1.16820100e-01
       21 -1    0    0  505  502 +0.0000000000e+00 +0.0000000000e+00 +2.1397460506e+02 2.1397460506e+02 0.0000000000e+00 0.0000e+00 -1.0000e+00
       21 -1    0    0  504  503 -0.0000000000e+00 -0.0000000000e+00 -4.0657985837e+02 4.0657985837e+02 0.0000000000e+00 0.0000e+00 -1.0000e+00
        6  1    1    2  501    0 +6.6427288776e+01 -1.4544940157e+01 +3.3968100639e+00 1.8591578281e+02 1.7300000000e+02 0.0000e+00 -1.0000e+00
       -6  1    1    2    0  503 -1.5458953580e+01 +3.8188195560e+01 -3.3179365210e+01 1.8090657202e+02 1.7300000000e+02 0.0000e+00 -1.0000e+00
       21  1    1    2  504  502 -3.4854092096e+01 -8.1710245723e+00 -2.0387548272e+02 2.0699465170e+02 0.0000000000e+00 0.0000e+00 -1.0000e+00
       21  1    1    2  505  501 -1.6114243101e+01 -1.5472230831e+01 +4.1052784560e+01 4.6737456902e+01 0.0000000000e+00 0.0000e+00 -1.0000e+00
<mgrwt>
<rscale>  4 0.17992553E+03</rscale>
<asrwt>0</asrwt>
<pdfrwt beam="1">  1       21 0.32919170E-01 0.17992553E+03</pdfrwt>
<pdfrwt beam="2">  1       21 0.62550747E-01 0.17992553E+03</pdfrwt>
<totfact> 0.21202471E+04</totfact>
</mgrwt>
</event>
<event>
 6      1 +2.5168241e+02 2.16124600e+02 7.54677100e-03 1.17132900e-01
       21 -1    0    0  505  502 +0.0000000000e+00 +0.0000000000e+00 +3.4689991826e+02 3.4689991826e+02 0.0000000000e+00 0.0000e+00 -1.0000e+00
       21 -1    0    0  504  503 -0.0000000000e+00 -0.0000000000e+00 -2.3689861220e+02 2.3689861220e+02 0.0000000000e+00 0.0000e+00 -1.0000e+00
        6  1    1    2  501    0 -3.3787739416e+01 +1.3943988705e+02 +9.9942071888e+00 2.2497550447e+02 1.7300000000e+02 0.0000e+00 1.0000e+00
       -6  1    1    2    0  502 +1.1272446001e+02 -7.4182961841e+01 +4.0183603992e+01 2.2305523473e+02 1.7300000000e+02 0.0000e+00 1.0000e+00
       21  1    1    2  504  501 -5.8220472446e+01 -4.3921224737e+01 +4.6345310532e+00 7.3076509716e+01 0.0000000000e+00 0.0000e+00 -1.0000e+00
       21  1    1    2  505  503 -2.0716248144e+01 -2.1335700474e+01 +5.5188963834e+01 6.2691281538e+01 0.0000000000e+00 0.0000e+00 -1.0000e+00
<mgrwt>
<rscale>  4 0.21612456E+03</rscale>
<asrwt>0</asrwt>
<pdfrwt beam="1">  1       21 0.53369218E-01 0.21612456E+03</pdfrwt>
<pdfrwt beam="2">  1       21 0.36445940E-01 0.21612456E+03</pdfrwt>
<totfact> 0.23812934E+04</totfact>
</mgrwt>
</event>
<event>
 6      1 +2.5168241e+02 2.82916800e+02 7.54677100e-03 1.16820100e-01
       21 -1    0    0  501  502 +0.0000000000e+00 +0.0000000000e+00 +4.6116215653e+02 4.6116215653e+02 0.0000000000e+00 0.0000e+00 1.0000e+00
       21 -1    0    0  504  503 -0.0000000000e+00 -0.0000000000e+00 -8.3666147024e+02 8.3666147024e+02 0.0000000000e+00 0.0000e+00 1.0000e+00
        6  1    1    2  501    0 -1.9819667706e+02 +5.4595116581e+01 +2.4407362955e+02 3.6299240514e+02 1.7300000000e+02 0.0000e+00 1.0000e+00
       -6  1    1    2    0  503 +2.9201170786e+02 -1.0611629978e+00 -5.3088619465e+01 3.4353946660e+02 1.7300000000e+02 0.0000e+00 1.0000e+00
       21  1    1    2  504  505 -2.2993404909e+01 -2.4937787406e+01 -4.5436695277e+02 4.5563133966e+02 0.0000000000e+00 0.0000e+00 1.0000e+00
       21  1    1    2  505  502 -7.0821625897e+01 -2.8596166178e+01 -1.1211737102e+02 1.3566041537e+02 0.0000000000e+00 0.0000e+00 1.0000e+00
<mgrwt>
<rscale>  4 0.28291676E+03</rscale>
<asrwt>0</asrwt>
<pdfrwt beam="1">  1       21 0.70948025E-01 0.28291676E+03</pdfrwt>
<pdfrwt beam="2">  1       21 0.12871715E+00 0.28291676E+03</pdfrwt>
<totfact> 0.73595354E+02</totfact>
</mgrwt>
</event>
<event>
 6      1 +2.5168241e+02 4.10755500e+02 7.54677100e-03 1.12068800e-01
       21 -1    0    0  504  502 +0.0000000000e+00 +0.0000000000e+00 +6.7787705941e+02 6.7787705941e+02 0.0000000000e+00 0.0000e+00 -1.0000e+00
       21 -1    0    0  502  503 -0.0000000000e+00 -0.0000000000e+00 -7.7440462021e+02 7.7440462021e+02 0.0000000000e+00 0.0000e+00 1.0000e+00
        6  1    1    2  501    0 -3.8110606849e+02 -1.9838160010e+00 +3.6350785388e+02 5.5435794466e+02 1.7300000000e+02 0.0000e+00 -1.0000e+00
       -6  1    1    2    0  505 +3.5438909659e+02 +5.2054544459e+01 +2.5427632327e+01 3.9859361744e+02 1.7300000000e+02 0.0000e+00 1.0000e+00
       21  1    1    2  504  501 +1.6626744712e+01 +1.2249168460e+01 -1.7330667951e+01 2.6960022613e+01 0.0000000000e+00 0.0000e+00 -1.0000e+00
       21  1    1    2  505  503 +1.0090227195e+01 -6.2319896917e+01 -4.6813237907e+02 4.7237009491e+02 0.0000000000e+00 0.0000e+00 1.0000e+00
<mgrwt>
<rscale>  4 0.41075549E+03</rscale>
<asrwt>0</asrwt>
<pdfrwt beam="1">  1       21 0.10428878E+00 0.41075549E+03</pdfrwt>
<pdfrwt beam="2">  1       21 0.11913917E+00 0.41075549E+03</pdfrwt>
<totfact> 0.33718838E+02</totfact>
</mgrwt>
</event>
<event>
 6      1 +2.5168241e+02 3.54221900e+02 7.54677100e-03 1.11671100e-01
       21 -1    0    0  503  502 +0.0000000000e+00 +0.0000000000e+00 +5.3736589420e+02 5.3736589420e+02 0.0000000000e+00 0.0000e+00 -1.0000e+00
       21 -1    0    0  501  503 -0.0000000000e+00 -0.0000000000e+00 -6.9657136598e+02 6.9657136598e+02 0.0000000000e+00 0.0000e+00 1.0000e+00
        6  1    1    2  501    0 +1.6478523469e+02 +2.7433327145e+02 -4.3576553088e+02 5.6765615940e+02 1.7300000000e+02 0.0000e+00 -1.0000e+00
       -6  1    1    2    0  504 -7.7580087278e+01 +1.9891586510e+01 -3.5076868194e+01 1.9383944861e+02 1.7300000000e+02 0.0000e+00 1.0000e+00
       21  1    1    2  504  505 -1.0600822947e+02 -2.4986829031e+02 +1.6395756726e+02 3.1710249302e+02 0.0000000000e+00 0.0000e+00 -1.0000e+00
       21  1    1    2  505  502 +1.8803082058e+01 -4.4356567645e+01 +1.4767936003e+02 1.5533915916e+02 0.0000000000e+00 0.0000e+00 -1.0000e+00
<mgrwt>
<rscale>  4 0.30248367E+03</rscale>
<asrwt>0</asrwt>
<pdfrwt beam="1">  1       21 0.82671677E-01 0.35422186E+03</pdfrwt>
<pdfrwt beam="2">  1       21 0.10716482E+00 0.35422186E+03</pdfrwt>
<totfact> 0.78576926E+02</totfact>
</mgrwt>
</event>
<event>
 6      1 +2.5168241e+02 1.78322600e+02 7.54677100e-03 1.17132900e-01
       21 -1    0    0  503  502 +0.0000000000e+00 +0.0000000000e+00 +1.0182428191e+02 1.0182428191e+02 0.0000000000e+00 0.0000e+00 1.0000e+00
       21 -1    0    0  504  503 -0.0000000000e+00 -0.0000000000e+00 -1.2934430954e+03 1.2934430954e+03 0.0000000000e+00 0.0000e+00 1.0000e+00
        6  1    1    2  501    0 -2.4031358617e+01 -1.9705638221e+00 -3.2728442630e+02 3.7097908973e+02 1.7300000000e+02 0.0000e+00 1.0000e+00
       -6  1    1    2    0  505 +2.1074492530e+01 +5.6500749714e+01 -1.0280696922e+02 2.1008270246e+02 1.7300000000e+02 0.0000e+00 1.0000e+00
       21  1    1    2  504  501 -2.0064576298e+01 -3.1317330711e+01 -7.7710261767e+02 7.7799218558e+02 0.0000000000e+00 0.0000e+00 1.0000e+00
       21  1    1    2  505  502 +2.3021442385e+01 -2.3212855182e+01 +1.5575199763e+01 3.6213399493e+01 0.0000000000e+00 0.0000e+00 1.0000e+00
<mgrwt>
<rscale>  4 0.17832260E+03</rscale>
<asrwt>0</asrwt>
<pdfrwt beam="1">  1       21 0.15665274E-01 0.17832260E+03</pdfrwt>
<pdfrwt beam="2">  1       21 0.19899125E+00 0.17832260E+03</pdfrwt>
<totfact> 0.50072592E+03</totfact>
</mgrwt>
</event>
<event>
 6      1 +2.5168241e+02 1.92647900e+02 7.54677100e-03 1.07064900e-01
       21 -1    0    0  505  502 +0.0000000000e+00 +0.0000000000e+00 +9.8925857412e+02 9.8925857412e+02 0.0000000000e+00 0.0000e+00 1.0000e+00
       21 -1    0    0  504  503 -0.0000000000e+00 -0.0000000000e+00 -2.1823919370e+02 2.1823919370e+02 0.0000000000e+00 0.0000e+00 1.0000e+00
        6  1    1    2  501    0 -1.1745501041e+02 -2.7811040987e+01 -1.5488117807e+01 2.1151362903e+02 1.7300000000e+02 0.0000e+00 -1.0000e+00
       -6  1    1    2    0  503 +3.5789549614e+01 +5.0808758038e+01 -4.3727802284e+00 1.8387643395e+02 1.7300000000e+02 0.0000e+00 1.0000e+00
       21  1    1    2  504  502 +4.0502110147e+01 -9.1481508993e+01 +3.4880333125e+02 3.6286781520e+02 0.0000000000e+00 0.0000e+00 1.0000e+00
       21  1    1    2  505  501 +4.1163350651e+01 +6.8483791942e+01 +4.4207694721e+02 4.4923988965e+02 0.0000000000e+00 0.0000e+00 1.0000e+00
<mgrwt>
<rscale>  4 0.19264786E+03</rscale>
<asrwt>0</asrwt>
<pdfrwt beam="1">  1       21 0.15219362E+00 0.19264786E+03</pdfrwt>
<pdfrwt beam="2">  1       21 0.33575261E-01 0.19264786E+03</pdfrwt>
<totfact> 0.24580884E+03</totfact>
</mgrwt>
</event>
<event>
 6      1 +2.5168241e+02 2.14259600e+02 7.54677100e-03 1.11910500e-01
       21 -1    0    0  501  502 +0.0000000000e+00 +0.0000000000e+00 +5.4786884579e+02 5.4786884579e+02 0.0000000000e+00 0.0000e+00 1.0000e+00
       21 -1    0    0  505  503 -0.0000000000e+00 -0.0000000000e+00 -1.2642247131e+02 1.2642247131e+02 0.0000000000e+00 0.0000e+00 1.0000e+00
        6  1    1    2  501    0 +3.3317793038e+01 -1.0638996070e+02 +1.6132707544e+02 2.6150396621e+02 1.7300000000e+02 0.0000e+00 1.0000e+00
       -6  1    1    2    0  504 -3.6476186508e+01 +1.3322108563e+02 +2.7310794391e+02 3.5156125905e+02 1.7300000000e+02 0.0000e+00 1.0000e+00
       21  1    1    2  504  503 +2.8068525736e+01 -1.6902688320e+01 -4.3461023935e+00 3.3051953278e+01 0.0000000000e+00 0.0000e+00 1.0000e+00
       21  1    1    2  505  502 -2.4910132267e+01 -9.9284366060e+00 -8.6425424804e+00 2.8174138559e+01 0.0000000000e+00 0.0000e+00 1.0000e+00
<mgrwt>
<rscale>  4 0.21425963E+03</rscale>
<asrwt>0</asrwt>
<pdfrwt beam="1">  1       21 0.84287513E-01 0.21425963E+03</pdfrwt>
<pdfrwt beam="2">  1       21 0.19449611E-01 0.21425963E+03</pdfrwt>
<totfact> 0.29349523E+04</totfact>
</mgrwt>
</event>
<event>
 6      1 +2.5168241e+02 2.56501500e+02 7.54677100e-03 1.07064900e-01
       21 -1    0    0  504  502 +0.0000000000e+00 +0.0000000000e+00 +2.7692346393e+02 2.7692346393e+02 0.0000000000e+00 0.0000e+00 -1.0000e+00
       21 -1    0    0  501  503 -0.0000000000e+00 -0.0000000000e+00 -3.5967876722e+02 3.5967876722e+02 0.0000000000e+00 0.0000e+00 1.0000e+00
        6  1    1    2  501    0 +1.3695796623e+02 +1.5450729302e+02 -1.3472520785e+02 3.0118079245e+02 1.7300000000e+02 0.0000e+00 1.0000e+00
       -6  1    1    2    0  505 -1.3001187312e+02 -1.0465396898e+02 -7.0796814289e+00 2.4048838281e+02 1.7300000000e+02 0.0000e+00 -1.0000e+00
       21  1    1    2  504  503 -2.7074281250e+01 -4.4653655328e+01 +3.3704672282e+01 6.2152800203e+01 0.0000000000e+00 0.0000e+00 -1.0000e+00
       21  1    1    2  505  502 +2.0128188142e+01 -5.1996687092e+00 +2.5344913703e+01 3.2780255691e+01 0.0000000000e+00 0.0000e+00 1.0000e+00
<mgrwt>
<rscale>  4 0.25650153E+03</rscale>
<asrwt>0</asrwt>
<pdfrwt beam="1">  1       21 0.42603610E-01 0.25650153E+03</pdfrwt>
<pdfrwt beam="2">  1       21 0.55335195E-01 0.25650153E+03</pdfrwt>
<totfact> 0.15743371E+04</totfact>
</mgrwt>
</event>
<event>
 6      1 +2.5168241e+02 2.93520100e+02 7.54677100e-03 1.15942100e-01
       21 -1    0    0  504  502 +0.0000000000e+00 +0.0000000000e+00 +9.2669638404e+02 9.2669638404e+02 0.0000000000e+00 0.0000e+00 1.0000e+00
       21 -1    0    0  501  503 -0.0000000000e+00 -0.0000000000e+00 -5.9031827078e+02 5.9031827078e+02 0.0000000000e+00 0.0000e+00 1.0000e+00
        6  1    1    2  501    0 -1.0743946762e+02 -2.3084502033e+02 +6.5888703586e+02 7.2725084299e+02 1.7300000000e+02 0.0000e+00 1.0000e+00
       -6  1    1    2    0  502 +3.1022027740e+01 +2.0020290345e+02 +1.4528206964e+02 3.0344595649e+02 1.7300000000e+02 0.0000e+00 1.0000e+00
       21  1    1    2  504  505 +5.9670447999e+01 +4.7307154630e+01 -4.5087574119e+02 4.5726082626e+02 0.0000000000e+00 0.0000e+00 1.0000e+00
       21  1    1    2  505  503 +1.6746991880e+01 -1.6665037748e+01 -1.6915251052e+01 2.9057029070e+01 0.0000000000e+00 0.0000e+00 -1.0000e+00
<mgrwt>
<rscale>  4 0.29352005E+03</rscale>
<asrwt>0</asrwt>
<pdfrwt beam="1">  1       21 0.14256867E+00 0.29352005E+03</pdfrwt>
<pdfrwt beam="2">  1       21 0.90818195E-01 0.29352005E+03</pdfrwt>
<totfact> 0.31853518E+02</totfact>
</mgrwt>
</event>
<event>
 6      1 +2.5168241e+02 1.91478300e+02 7.54677100e-03 1.11910500e-01
       21 -1    0    0  501  502 +0.0000000000e+00 +0.0000000000e+00 +6.6222131048e+01 6.6222131048e+01 0.0000000000e+00 0.0000e+00 1.0000e+00
       21 -1    0    0  504  503 -0.0000000000e+00 -0.0000000000e+00 -1.1079758026e+03 1.1079758026e+03 0.0000000000e+00 0.0000e+00 1.0000e+00
        6  1    1    2  501    0 -5.6620986109e+01 +1.8441735765e+01 -5.8589018164e+02 6.1379340061e+02 1.7300000000e+02 0.0000e+00 1.0000e+00
       -6  1    1    2    0  503 +8.9787774877e+01 +1.6419788016e+01 -1.4458558706e+02 2.4323948269e+02 1.7300000000e+02 0.0000e+00 1.0000e+00
       21  1    1    2  504  505 -3.4489215210e+01 -1.2518359180e+01 -2.2792732417e+02 2.3086160440e+02 0.0000000000e+00 0.0000e+00 1.0000e+00
       21  1    1    2  505  502 +1.3224264416e+00 -2.2343164601e+01 -8.3350578709e+01 8.6303445975e+01 0.0000000000e+00 0.0000e+00 -1.0000e+00
<mgrwt>
<rscale>  4 0.19147828E+03</rscale>
<asrwt>0</asrwt>
<pdfrwt beam="1">  1       21 0.10188021E-01 0.19147828E+03</pdfrwt>
<pdfrwt beam="2">  1       21 0.17045780E+00 0.19147828E+03</pdfrwt>
<totfact> 0.16644927E+04</totfact>
</mgrwt>
</event>
<event>
 6      1 +2.5168241e+02 5.45379000e+02 7.54677100e-03 1.17132900e-01
       21 -1    0    0  505  502 +0.0000000000e+00 +0.0000000000e+00 +1.2423094961e+03 1.2423094961e+03 0.0000000000e+00 0.0000e+00 -1.0000e+00
       21 -1    0    0  504  503 -0.0000000000e+00 -0.0000000000e+00 -7.7954908711e+02 7.7954908711e+02 0.0000000000e+00 0.0000e+00 1.0000e+00
        6  1    1    2  501    0 -5.7360476913e+01 -1.9246328253e+02 -4.1672693758e+01 2.6832434262e+02 1.7300000000e+02 0.0000e+00 1.0000e+00
       -6  1    1    2    0  502 -4.4946610600e+02 -2.8879272170e+02 +3.5261200521e+02 6.6308765843e+02 1.7300000000e+02 0.0000e+00 -1.0000e+00
       21  1    1    2  504  501 +1.2473751605e+02 +1.4697275132e+02 -3.3536590341e+02 3.8682131109e+02 0.0000000000e+00 0.0000e+00 1.0000e+00
       21  1    1    2  505  503 +3.8208906687e+02 +3.3428325291e+02 +4.8718700097e+02 7.0362527109e+02 0.0000000000e+00 0.0000e+00 -1.0000e+00
<mgrwt>
<rscale>  4 0.43542505E+03</rscale>
<asrwt>0</asrwt>
<pdfrwt beam="1">  1       21 0.19112454E+00 0.54537897E+03</pdfrwt>
<pdfrwt beam="2">  1       21 0.11993063E+00 0.54537897E+03</pdfrwt>
<totfact> 0.60761522E+01</totfact>
</mgrwt>
</event>
<event>
 6      1 +2.5168241e+02 2.14975600e+02 7.54677100e-03 1.16820100e-01
       21 -1    0    0  501  502 +0.0000000000e+00 +0.0000000000e+00 +1.3170666023e+03 1.3170666023e+03 0.0000000000e+00 0.0000e+00 -1.0000e+00
       21 -1    0    0  504  503 -0.0000000000e+00 -0.0000000000e+00 -4.7866724527e+02 4.7866724527e+02 0.0000000000e+00 0.0000e+00 -1.0000e+00
        6  1    1    2  501    0 +8.2208988477e+00 -8.7018664556e+01 +8.9096918119e+02 9.1180859450e+02 1.7300000000e+02 0.0000e+00 -1.0000e+00
       -6  1    1    2    0  503 +3.2400765245e+01 -1.8174387115e+02 -2.5141138160e+02 3.5667538055e+02 1.7300000000e+02 0.0000e+00 1.0000e+00
       21  1    1    2  504  505 -2.7797907346e+01 +7.2488862536e+01 -1.2570835088e+02 1.4774961362e+02 0.0000000000e+00 0.0000e+00 -1.0000e+00
       21  1    1    2  505  502 -1.2823756746e+01 +1.9627367317e+02 +3.2454990830e+02 3.7950025889e+02 0.0000000000e+00 0.0000e+00 -1.0000e+00
<mgrwt>
<rscale>  4 0.20920632E+03</rscale>
<asrwt>0</asrwt>
<pdfrwt beam="1">  1       21 0.20262563E+00 0.21497560E+03</pdfrwt>
<pdfrwt beam="2">  1       21 0.73641115E-01 0.21497560E+03</pdfrwt>
<totfact> 0.20788270E+02</totfact>
</mgrwt>
</event>
<event>
 6      1 +2.5168241e+02 2.00459600e+02 7.54677100e-03 1.13071300e-01
       21 -1    0    0  503  502 +0.0000000000e+00 +0.0000000000e+00 +2.4008011384e+03 2.4008011384e+03 0.0000000000e+00 0.0000e+00 1.0000e+00
       21 -1    0    0  505  503 -0.0000000000e+00 -0.0000000000e+00 -2.9553851207e+02 2.9553851207e+02 0.0000000000e+00 0.0000e+00 1.0000e+00
        6  1    1    2  501    0 -3.9454769489e+01 -1.4876404271e+02 -2.1360898314e+02 3.1503208871e+02 1.7300000000e+02 0.0000e+00 1.0000e+00
       -6  1    1    2    0  502 -5.1544578367e+01 +8.7015718563e+01 +2.2091237117e+03 2.2181941196e+03 1.7300000000e+02 0.0000e+00 1.0000e+00
       21  1    1    2  504  501 +5.8209315292e+01 +6.4866169089e+01 +7.2287890353e+01 1.1323198917e+02 0.0000000000e+00 0.0000e+00 -1.0000e+00
       21  1    1    2  505  504 +3.2790032564e+01 -3.1178449424e+00 +3.7460007436e+01 4.9881452964e+01 0.0000000000e+00 0.0000e+00 -1.0000e+00
<mgrwt>
<rscale>  4 0.20045959E+03</rscale>
<asrwt>0</asrwt>
<pdfrwt beam="1">  1       21 0.36935401E+00 0.20045959E+03</pdfrwt>
<pdfrwt beam="2">  1       21 0.45467465E-01 0.20045959E+03</pdfrwt>
<totfact> 0.61344652E+01</totfact>
</mgrwt>
</event>
<event>
 6      1 +2.5168241e+02 1.77490100e+02 7.54677100e-03 1.15942100e-01
       21 -1    0    0  504  502 +0.0000000000e+00 +0.0000000000e+00 +1.7243036559e+03 1.7243036559e+03 0.0000000000e+00 0.0000e+00 -1.0000e+00
       21 -1    0    0  501  503 -0.0000000000e+00 -0.0000000000e+00 -8.1247357479e+02 8.1247357479e+02 0.0000000000e+00 0.0000e+00 -1.0000e+00
        6  1    1    2  501    0 -9.2080254928e+01 +1.6146234021e+01 +3.3990784356e+01 1.9955913320e+02 1.7300000000e+02 0.0000e+00 1.0000e+00
       -6  1    1    2    0  502 -1.0117707582e+01 +4.2770214167e+01 +1.5976307477e+03 1.6075710451e+03 1.7300000000e+02 0.0000e+00 -1.0000e+00
       21  1    1    2  504  505 +8.7791377926e+01 -4.2078362425e+01 -5.8357744034e+02 5.9164224282e+02 0.0000000000e+00 0.0000e+00 -1.0000e+00
       21  1    1    2  505  503 +1.4406584585e+01 -1.6838085762e+01 -1.3621401053e+02 1.3800480961e+02 0.0000000000e+00 0.0000e+00 -1.0000e+00
<mgrwt>
<rscale>  4 0.17749010E+03</rscale>
<asrwt>0</asrwt>
<pdfrwt beam="1">  1       21 0.26527748E+00 0.17749010E+03</pdfrwt>
<pdfrwt beam="2">  1       21 0.12499594E+00 0.17749010E+03</pdfrwt>
<totfact> 0.26571837E+01</totfact>
</mgrwt>
</event>
<event>
 6      1 +2.5168241e+02 2.29528900e+02 7.54677100e-03 1.07064900e-01
       21 -1    0    0  501  502 +0.0000000000e+00 +0.0000000000e+00 +7.8900788216e+02 7.8900788216e+02 0.0000000000e+00 0.0000e+00 1.0000e+00
       21 -1    0    0  504  503 -0.0000000000e+00 -0.0000000000e+00 -2.4735384401e+02 2.4735384401e+02 0.0000000000e+00 0.0000e+00 1.0000e+00
        6  1    1    2  501    0 +1.3374964391e+02 -4.2549307484e-02 +3.3904440828e+02 4.0344650184e+02 1.7300000000e+02 0.0000e+00 1.0000e+00
       -6  1    1    2    0  503 -5.7177655030e+01 -1.6247655663e+02 -9.9722764752e+01 2.6370731029e+02 1.7300000000e+02 0.0000e+00 1.0000e+00
       21  1    1    2  504  505 -3.8759267341e+01 +1.3293628072e+02 +1.2864600015e+02 1.8900827731e+02 0.0000000000e+00 0.0000e+00 1.0000e+00
       21  1    1    2  505  502 -3.7812721534e+01 +2.9582825220e+01 +1.7368639446e+02 1.8019963674e+02 0.0000000000e+00 0.0000e+00 -1.0000e+00
<mgrwt>
<rscale>  4 0.22952893E+03</rscale>
<asrwt>0</asrwt>
<pdfrwt beam="1">  1       21 0.12138583E+00 0.22952893E+03</pdfrwt>
<pdfrwt beam="2">  1       21 0.38054438E-01 0.22952893E+03</pdfrwt>
<totfact> 0.33171848E+03</totfact>
</mgrwt>
</event>
<event>
 6      1 +2.5168241e+02 2.64576500e+02 7.54677100e-03 1.16820100e-01
       21 -1    0    0  504  502 +0.0000000000e+00 +0.0000000000e+00 +1.5744662499e+03 1.5744662499e+03 0.0000000000e+00 0.0000e+00 1.0000e+00
       21 -1    0    0  501  503 -0.0000000000e+00 -0.0000000000e+00 -1.1001567770e+02 1.1001567770e+02 0.0000000000e+00 0.0000e+00 -1.0000e+00
        6  1    1    2  501    0 +1.8557397195e+02 +4.0552361603e+01 +5.2102413915e+02 5.8092800473e+02 1.7300000000e+02 0.0000e+00 1.0000e+00
       -6  1    1    2    0  505 -2.0132456488e+02 -4.6091655086e+00 +8.2126360627e+02 8.6310818314e+02 1.7300000000e+02 0.0000e+00 1.0000e+00
       21  1    1    2  504  503 +5.0727755228e+01 -2.4027234280e+01 -4.3310303803e+01 7.0897077184e+01 0.0000000000e+00 0.0000e+00 -1.0000e+00
       21  1    1    2  505  502 -3.4977162301e+01 -1.1915961815e+01 +1.6547313057e+02 1.6954866254e+02 0.0000000000e+00 0.0000e+00 1.0000e+00
<mgrwt>
<rscale>  4 0.26457649E+03</rscale>
<asrwt>0</asrwt>
<pdfrwt beam="1">  1       21 0.24222556E+00 0.26457649E+03</pdfrwt>
<pdfrwt beam="2">  1       21 0.16925490E-01 0.26457649E+03</pdfrwt>
<totfact> 0.21689558E+03</totfact>
</mgrwt>
</event>
<event>
 6      1 +2.5168241e+02 3.06427200e+02 7.54677100e-03 1.04003000e-01
       21 -1    0    0  504  502 +0.0000000000e+00 +0.0000000000e+00 +3.0107978354e+02 3.0107978354e+02 0.0000000000e+00 0.0000e+00 -1.0000e+00
       21 -1    0    0  505  503 -0.0000000000e+00 -0.0000000000e+00 -7.9414581523e+02 7.9414581523e+02 0.0000000000e+00 0.0000e+00 -1.0000e+00
        6  1    1    2  501    0 +2.7410671028e+02 +1.1879296223e+01 -1.0231482267e+02 3.4010723197e+02 1.7300000000e+02 0.0000e+00 -1.0000e+00
       -6  1    1    2    0  503 -2.1081027343e+02 -1.7445466144e+02 -4.2293929072e+01 3.2648610494e+02 1.7300000000e+02 0.0000e+00 -1.0000e+00
       21  1    1    2  504  501 -9.7574144334e+01 +9.7069161000e+01 -3.2187407537e+02 3.5006578818e+02 0.0000000000e+00 0.0000e+00 -1.0000e+00
       21  1    1    2  505  502 +3.4277707483e+01 +6.5506204220e+01 -2.6583204573e+01 7.8566473683e+01 0.0000000000e+00 0.0000e+00 1.0000e+00
<mgrwt>
<rscale>  4 0.30642721E+03</rscale>
<asrwt>0</asrwt>
<pdfrwt beam="1">  1       21 0.46319967E-01 0.30642721E+03</pdfrwt>
<pdfrwt beam="2">  1       21 0.12217628E+00 0.30642721E+03</pdfrwt>
<totfact> 0.20742214E+03</totfact>
</mgrwt>
</event>
<event>
 6      1 +2.5168241e+02 2.41250500e+02 7.54677100e-03 1.16820100e-01
       21 -1    0    0  505  502 +0.0000000000e+00 +0.0000000000e+00 +1.3291563168e+03 1.3291563168e+03 0.0000000000e+00 0.0000e+00 -1.0000e+00
       21 -1    0    0  501  503 -0.0000000000e+00 -0.0000000000e+00 -1.0805133918e+02 1.0805133918e+02 0.0000000000e+00 0.0000e+00 1.0000e+00
        6  1    1    2  501    0 -1.5157194889e+02 +5.9856556837e+01 +3.2600822182e+02 4.0344420157e+02 1.7300000000e+02 0.0000e+00 -1.0000e+00
       -6  1    1    2    0  502 +1.7350042418e+02 -2.9216452518e+01 +3.1342548210e+02 3.9889914906e+02 1.7300000000e+02 0.0000e+00 1.0000e+00
       21  1    1    2  504  503 +1.9905977570e+01 -1.5057924581e+01 -1.9725264962e+01 3.1813128006e+01 0.0000000000e+00 0.0000e+00 -1.0000e+00
       21  1    1    2  505  504 -4.1834452860e+01 -1.5582179738e+01 +6.0139653866e+02 6.0305117733e+02 0.0000000000e+00 0.0000e+00 -1.0000e+00
<mgrwt>
<rscale>  4 0.24125047E+03</rscale>
<asrwt>0</asrwt>
<pdfrwt beam="1">  1       21 0.20448558E+00 0.24125047E+03</pdfrwt>
<pdfrwt beam="2">  1       21 0.16623284E-01 0.24125047E+03</pdfrwt>
<totfact> 0.39154164E+03</totfact>
</mgrwt>
</event>
<event>
 6      1 +2.5168241e+02 2.26692000e+02 7.54677100e-03 1.17132900e-01
       21 -1    0    0  505  502 +0.0000000000e+00 +0.0000000000e+00 +2.8359067738e+02 2.8359067738e+02 0.0000000000e+00 0.0000e+00 1.0000e+00
       21 -1    0    0  504  503 -0.0000000000e+00 -0.0000000000e+00 -1.8218746076e+03 1.8218746076e+03 0.0000000000e+00 0.0000e+00 -1.0000e+00
        6  1    1    2  501    0 +3.1845276989e+01 -3.5315050026e+01 -2.9970387378e+01 1.8190244238e+02 1.7300000000e+02 0.0000e+00 -1.0000e+00
       -6  1    1    2    0  502 -1.0433636415e+02 +1.1797080272e+02 -1.6121274544e+03 1.6290141548e+03 1.7300000000e+02 0.0000e+00 -1.0000e+00
       21  1    1    2  504  501 +4.8729750190e+01 -5.1382674792e+01 -7.9852629538e+01 1.0672961288e+02 0.0000000000e+00 0.0000e+00 -1.0000e+00
       21  1    1    2  505  503 +2.3761336975e+01 -3.1273077907e+01 +1.8366654118e+02 1.8781907487e+02 0.0000000000e+00 0.0000e+00 1.0000e+00
<mgrwt>
<rscale>  4 0.22669197E+03</rscale>
<asrwt>0</asrwt>
<pdfrwt beam="1">  1       21 0.43629333E-01 0.22669197E+03</pdfrwt>
<pdfrwt beam="2">  1       21 0.28028841E+00 0.22669197E+03</pdfrwt>
<totfact> 0.21343015E+02</totfact>
</mgrwt>
</event>
<event>
 6      1 +2.5168241e+02 2.29137500e+02 7.54677100e-03 1.07064900e-01
       21 -1    0    0  505  502 +0.0000000000e+00 +0.0000000000e+00 +1.9710410786e+02 1.9710410786e+02 0.0000000000e+00 0.0000e+00 1.0000e+00
       21 -1    0    0  502  503 -0.0000000000e+00 -0.0000000000e+00 -5.8749109827e+02 5.8749109827e+02 0.0000000000e+00 0.0000e+00 -1.0000e+00
        6  1    1    2  501    0 -1.6033183168e+02 -1.3034278397e+02 -1.0151059787e+02 2.8797385135e+02 1.7300000000e+02 0.0000e+00 1.0000e+00
       -6  1    1    2    0  504 +1.1868515671e+02 -5.3605060260e+00 -1.1152041935e+02 2.3765669647e+02 1.7300000000e+02 0.0000e+00 -1.0000e+00
       21  1    1    2  504  503 +3.8408091578e+01 +1.5560426731e+02 -1.7702304762e+02 2.3879913922e+02 0.0000000000e+00 0.0000e+00 -1.0000e+00
       21  1    1    2  505  501 +3.2385833920e+00 -1.9900977316e+01 -3.3292556958e-01 2.0165519084e+01 0.0000000000e+00 0.0000e+00 -1.0000e+00
<mgrwt>
<rscale>  4 0.22913755E+03</rscale>
<asrwt>0</asrwt>
<pdfrwt beam="1">  1       21 0.30323709E-01 0.22913755E+03</pdfrwt>
<pdfrwt beam="2">  1       21 0.90383246E-01 0.22913755E+03</pdfrwt>
<totfact> 0.10598850E+04</totfact>
</mgrwt>
</event>
<event>
 6      1 +2.5168241e+02 1.81938800e+02 7.54677100e-03 1.16820100e-01
       21 -1    0    0  504  502 +0.0000000000e+00 +0.0000000000e+00 +1.2611144027e+02 1.2611144027e+02 0.0000000000e+00 0.0000e+00 1.0000e+00
       21 -1    0    0  501  503 -0.0000000000e+00 -0.0000000000e+00 -9.5366023800e+02 9.5366023800e+02 0.0000000000e+00 0.0000e+00 1.0000e+00
        6  1    1    2  501    0 -5.1041037477e+01 -2.4395014016e+01 -6.1766283878e+02 6.4392288872e+02 1.7300000000e+02 0.0000e+00 1.0000e+00
       -6  1    1    2    0  505 +2.6143678659e+01 +2.5238025491e+01 -1.3010596749e+02 2.1949262548e+02 1.7300000000e+02 0.0000e+00 1.0000e+00
       21  1    1    2  504  503 +3.4836130815e+00 -2.1489024754e+01 -1.4397127030e+02 1.4560783089e+02 0.0000000000e+00 0.0000e+00 1.0000e+00
       21  1    1    2  505  502 +2.1413745737e+01 +2.0646013279e+01 +6.4191278832e+01 7.0748333188e+01 0.0000000000e+00 0.0000e+00 1.0000e+00
<mgrwt>
<rscale>  4 0.18193877E+03</rscale>
<asrwt>0</asrwt>
<pdfrwt beam="1">  1       21 0.19401759E-01 0.18193877E+03</pdfrwt>
<pdfrwt beam="2">  1       21 0.14671696E+00 0.18193877E+03</pdfrwt>
<totfact> 0.78042791E+03</totfact>
</mgrwt>
</event>
<event>
 6      1 +2.5168241e+02 2.86258800e+02 7.54677100e-03 1.16820100e-01
       21 -1    0    0  504  502 +0.0000000000e+00 +0.0000000000e+00 +7.5598911154e+02 7.5598911154e+02 0.0000000000e+00 0.0000e+00 -1.0000e+00
       21 -1    0    0  501  503 -0.0000000000e+00 -0.0000000000e+00 -5.9232549284e+02 5.9232549284e+02 0.0000000000e+00 0.0000e+00 -1.0000e+00
        6  1    1    2  501    0 +1.4919743207e+02 +2.8765974521e+02 -5.8497752872e+01 3.7196638268e+02 1.7300000000e+02 0.0000e+00 -1.0000e+00
       -6  1    1    2    0  505 -3.0160641203e+01 -1.5504184965e+02 +3.2941942904e+02 4.0421998917e+02 1.7300000000e+02 0.0000e+00 -1.0000e+00
       21  1    1    2  504  503 -2.3999401271e+01 -9.4657100809e+01 -3.2079822916e+02 3.3533183837e+02 0.0000000000e+00 0.0000e+00 -1.0000e+00
       21  1    1    2  505  502 -9.5037389593e+01 -3.7960794755e+01 +2.1354017170e+02 2.3679639416e+02 0.0000000000e+00 0.0000e+00 1.0000e+00
<mgrwt>
<rscale>  4 0.28625884E+03</rscale>
<asrwt>0</asrwt>
<pdfrwt beam="1">  1       21 0.11630602E+00 0.28625884E+03</pdfrwt>
<pdfrwt beam="2">  1       21 0.91126998E-01 0.28625884E+03</pdfrwt>
<totfact> 0.53466387E+02</totfact>
</mgrwt>
</event>
<event>
 6      1 +2.5168241e+02 2.23554300e+02 7.54677100e-03 1.03924000e-01
       21 -1    0    0  504  502 +0.0000000000e+00 +0.0000000000e+00 +5.2208200539e+02 5.2208200539e+02 0.0000000000e+00 0.0000e+00 -1.0000e+00
       21 -1    0    0  501  503 -0.0000000000e+00 -0.0000000000e+00 -2.0801384038e+02 2.0801384038e+02 0.0000000000e+00 0.0000e+00 -1.0000e+00
        6  1    1    2  501    0 +1.4246922629e+02 +6.3820922606e+01 -1.9518293969e+00 2.3303089975e+02 1.7300000000e+02 0.0000e+00 -1.0000e+00
       -6  1    1    2    0  505 -1.3253668527e+02 +1.5467363408e+01 +8.3473453248e+01 2.3388465035e+02 1.7300000000e+02 0.0000e+00 1.0000e+00
       21  1    1    2  504  503 -2.6604013047e+01 -1.1096995781e+01 +1.5868062490e+02 1.6127757917e+02 0.0000000000e+00 0.0000e+00 -1.0000e+00
       21  1    1    2  505  502 +1.6671472033e+01 -6.8191290233e+01 +7.3865916258e+01 1.0190271649e+02 0.0000000000e+00 0.0000e+00 -1.0000e+00
<mgrwt>
<rscale>  4 0.22355427E+03</rscale>
<asrwt>0</asrwt>
<pdfrwt beam="1">  1       21 0.80320308E-01 0.22355427E+03</pdfrwt>
<pdfrwt beam="2">  1       21 0.32002129E-01 0.22355427E+03</pdfrwt>
<totfact> 0.12549139E+04</totfact>
</mgrwt>
</event>
<event>
 6      1 +2.5168241e+02 2.26009600e+02 7.54677100e-03 1.17132900e-01
       21 -1    0    0  503  502 +0.0000000000e+00 +0.0000000000e+00 +1.4216465840e+02 1.4216465840e+02 0.0000000000e+00 0.0000e+00 1.0000e+00
       21 -1    0    0  504  503 -0.0000000000e+00 -0.0000000000e+00 -1.2512617071e+03 1.2512617071e+03 0.0000000000e+00 0.0000e+00 -1.0000e+00
        6  1    1    2  501    0 +3.7153977981e+01 -1.6144021428e+02 -4.0855362720e+02 4.7359099143e+02 1.7300000000e+02 0.0000e+00 -1.0000e+00
       -6  1    1    2    0  505 +1.4708740878e+02 +1.0554001462e+02 -5.4897953905e+02 6.0339119550e+02 1.7300000000e+02 0.0000e+00 -1.0000e+00
       21  1    1    2  504  501 -1.6040286152e+02 +7.8447230903e+01 -1.9343420055e+02 2.6324862006e+02 0.0000000000e+00 0.0000e+00 1.0000e+00
       21  1    1    2  505  502 -2.3838525246e+01 -2.2547031243e+01 +4.1870318116e+01 5.3195558489e+01 0.0000000000e+00 0.0000e+00 -1.0000e+00
<mgrwt>
<rscale>  4 0.22600963E+03</rscale>
<asrwt>0</asrwt>
<pdfrwt beam="1">  1       21 0.21871486E-01 0.22600963E+03</pdfrwt>
<pdfrwt beam="2">  1       21 0.19250180E+00 0.22600963E+03</pdfrwt>
<totfact> 0.28418225E+03</totfact>
</mgrwt>
</event>
<event>
 6      1 +2.5168241e+02 2.37220100e+02 7.54677100e-03 1.07240600e-01
       21 -1    0    0  505  502 +0.0000000000e+00 +0.0000000000e+00 +6.6466205655e+02 6.6466205655e+02 0.0000000000e+00 0.0000e+00 -1.0000e+00
       21 -1    0    0  504  503 -0.0000000000e+00 -0.0000000000e+00 -2.2929499755e+02 2.2929499755e+02 0.0000000000e+00 0.0000e+00 1.0000e+00
        6  1    1    2  501    0 -5.4898762656e+01 -1.4031161417e+02 +4.3023217976e+02 4.8757558564e+02 1.7300000000e+02 0.0000e+00 -1.0000e+00
       -6  1    1    2    0  502 +5.0296115674e+01 +1.6182871226e+02 +9.8158765140e+01 2.6130896375e+02 1.7300000000e+02 0.0000e+00 1.0000e+00
       21  1    1    2  504  501 -2.0043775133e+01 -7.8985198842e+00 +1.9512448096e+01 2.9066736464e+01 0.0000000000e+00 0.0000e+00 1.0000e+00
       21  1    1    2  505  503 +2.4646422115e+01 -1.3618578206e+01 -1.1253633400e+02 1.1600576824e+02 0.0000000000e+00 0.0000e+00 1.0000e+00
<mgrwt>
<rscale>  4 0.23722013E+03</rscale>
<asrwt>0</asrwt>
<pdfrwt beam="1">  1       21 0.10225570E+00 0.23722013E+03</pdfrwt>
<pdfrwt beam="2">  1       21 0.35276154E-01 0.23722013E+03</pdfrwt>
<totfact> 0.58408843E+03</totfact>
</mgrwt>
</event>
<event>
 6      1 +2.5168241e+02 3.62676500e+02 7.54677100e-03 1.07240600e-01
       21 -1    0    0  505  502 +0.0000000000e+00 +0.0000000000e+00 +5.6088829601e+02 5.6088829601e+02 0.0000000000e+00 0.0000e+00 -1.0000e+00
       21 -1    0    0  504  503 -0.0000000000e+00 -0.0000000000e+00 -4.6644064227e+02 4.6644064227e+02 0.0000000000e+00 0.0000e+00 1.0000e+00
        6  1    1    2  501    0 +2.3483204828e+02 +2.4592758165e+02 +2.5616189614e+02 4.5953714034e+02 1.7300000000e+02 0.0000e+00 -1.0000e+00
       -6  1    1    2    0  502 -2.0257749320e+02 -1.9962652975e+02 +3.8785484377e+00 3.3291505714e+02 1.7300000000e+02 0.0000e+00 1.0000e+00
       21  1    1    2  504  501 +1.5901260032e+01 +5.0510411666e+01 -8.4491378661e+01 9.9714316049e+01 0.0000000000e+00 0.0000e+00 1.0000e+00
       21  1    1    2  505  503 -4.8155815115e+01 -9.6811463569e+01 -8.1101412171e+01 1.3516242475e+02 0.0000000000e+00 0.0000e+00 1.0000e+00
<mgrwt>
<rscale>  4 0.36267647E+03</rscale>
<asrwt>0</asrwt>
<pdfrwt beam="1">  1       21 0.86290507E-01 0.36267647E+03</pdfrwt>
<pdfrwt beam="2">  1       21 0.71760099E-01 0.36267647E+03</pdfrwt>
<totfact> 0.18144321E+03</totfact>
</mgrwt>
</event>
<event>
 6      1 +2.5168241e+02 2.68963100e+02 7.54677100e-03 1.15942100e-01
       21 -1    0    0  504  502 +0.0000000000e+00 +0.0000000000e+00 +1.7714878759e+02 1.7714878759e+02 0.0000000000e+00 0.0000e+00 -1.0000e+00
       21 -1    0    0  501  503 -0.0000000000e+00 -0.0000000000e+00 -9.5510210179e+02 9.5510210179e+02 0.0000000000e+00 0.0000e+00 1.0000e+00
        6  1    1    2  501    0 -1.8468128009e+02 -1.0497401053e+02 -2.8041854329e+00 2.7397733767e+02 1.7300000000e+02 0.0000e+00 -1.0000e+00
       -6  1    1    2    0  502 +1.9186273211e+02 +3.1051862469e+01 -4.1415642644e+02 4.8911151254e+02 1.7300000000e+02 0.0000e+00 1.0000e+00
       21  1    1    2  504  505 +6.2767284612e+00 +2.2352255483e+01 -1.3399131329e+02 1.3598784020e+02 0.0000000000e+00 0.0000e+00 1.0000e+00
       21  1    1    2  505  503 -1.3458180479e+01 +5.1569892578e+01 -2.2700138903e+02 2.3317419896e+02 0.0000000000e+00 0.0000e+00 -1.0000e+00
<mgrwt>
<rscale>  4 0.26896311E+03</rscale>
<asrwt>0</asrwt>
<pdfrwt beam="1">  1       21 0.27253659E-01 0.26896311E+03</pdfrwt>
<pdfrwt beam="2">  1       21 0.14693879E+00 0.26896311E+03</pdfrwt>
<totfact> 0.38244684E+03</totfact>
</mgrwt>
</event>
<event>
 6      1 +2.5168241e+02 2.34185000e+02 7.54677100e-03 1.16820100e-01
       21 -1    0    0  505  502 +0.0000000000e+00 +0.0000000000e+00 +6.5336441533e+02 6.5336441533e+02 0.0000000000e+00 0.0000e+00 -1.0000e+00
       21 -1    0    0  504  503 -0.0000000000e+00 -0.0000000000e+00 -5.4269272516e+02 5.4269272516e+02 0.0000000000e+00 0.0000e+00 -1.0000e+00
        6  1    1    2  501    0 -1.6162916254e+02 -1.0773354778e+01 +5.1665103746e+01 2.4256614418e+02 1.7300000000e+02 0.0000e+00 -1.0000e+00
       -6  1    1    2    0  503 +1.3974366728e+02 +1.1274245622e+01 -3.7703853316e+02 4.3788406759e+02 1.7300000000e+02 0.0000e+00 1.0000e+00
       21  1    1    2  504  502 +1.7956254094e+01 +3.0292556315e+01 -3.1370762227e+01 4.7161326868e+01 0.0000000000e+00 0.0000e+00 -1.0000e+00
       21  1    1    2  505  501 +3.9292411620e+00 -3.0793447160e+01 +4.6741588181e+02 4.6844560185e+02 0.0000000000e+00 0.0000e+00 -1.0000e+00
<mgrwt>
<rscale>  4 0.23418501E+03</rscale>
<asrwt>0</asrwt>
<pdfrwt beam="1">  1       21 0.10051760E+00 0.23418501E+03</pdfrwt>
<pdfrwt beam="2">  1       21 0.83491189E-01 0.23418501E+03</pdfrwt>
<totfact> 0.97359726E+02</totfact>
</mgrwt>
</event>
<event>
 6      1 +2.5168241e+02 3.01646200e+02 7.54677100e-03 1.07240600e-01
       21 -1    0    0  505  502 +0.0000000000e+00 +0.0000000000e+00 +1.2486111120e+03 1.2486111120e+03 0.0000000000e+00 0.0000e+00 -1.0000e+00
       21 -1    0    0  504  503 -0.0000000000e+00 -0.0000000000e+00 -1.6041865419e+02 1.6041865419e+02 0.0000000000e+00 0.0000e+00 1.0000e+00
        6  1    1    2  501    0 +2.2530486891e+02 +3.7037176130e+01 +5.3485591243e+02 6.0674037564e+02 1.7300000000e+02 0.0000e+00 1.0000e+00
       -6  1    1    2    0  502 -2.6085733057e+02 -4.3696723083e+01 +4.7195979768e+02 5.6800616295e+02 1.7300000000e+02 0.0000e+00 -1.0000e+00
       21  1    1    2  504  501 +2.8001970384e+01 +3.3729912738e+01 +1.5204133817e+02 1.5823522323e+02 0.0000000000e+00 0.0000e+00 -1.0000e+00
       21  1    1    2  505  503 +7.5504912774e+00 -2.7070365784e+01 -7.0664590476e+01 7.6048004375e+01 0.0000000000e+00 0.0000e+00 1.0000e+00
<mgrwt>
<rscale>  4 0.30164624E+03</rscale>
<asrwt>0</asrwt>
<pdfrwt beam="1">  1       21 0.19209401E+00 0.30164624E+03</pdfrwt>
<pdfrwt beam="2">  1       21 0.24679794E-01 0.30164624E+03</pdfrwt>
<totfact> 0.21469101E+03</totfact>
</mgrwt>
</event>
<event>
 6      1 +2.5168241e+02 2.15189800e+02 7.54677100e-03 1.09842800e-01
       21 -1    0    0  503  502 +0.0000000000e+00 +0.0000000000e+00 +1.7537235035e+02 1.7537235035e+02 0.0000000000e+00 0.0000e+00 -1.0000e+00
       21 -1    0    0  504  503 -0.0000000000e+00 -0.0000000000e+00 -1.3624351623e+03 1.3624351623e+03 0.0000000000e+00 0.0000e+00 -1.0000e+00
        6  1    1    2  501    0 +4.0659831705e+01 -1.2714231322e+02 -1.0017438260e+03 1.0252990211e+03 1.7300000000e+02 0.0000e+00 -1.0000e+00
       -6  1    1    2    0  505 +6.2121508845e+01 +1.0976415123e+02 -1.8804562824e+01 2.1491826897e+02 1.7300000000e+02 0.0000e+00 -1.0000e+00
       21  1    1    2  504  501 -7.9399837079e+01 +1.3388702711e+00 -2.2172924292e+02 2.3552066548e+02 0.0000000000e+00 0.0000e+00 -1.0000e+00
       21  1    1    2  505  502 -2.3381503471e+01 +1.6039291727e+01 +5.5214819835e+01 6.2069557055e+01 0.0000000000e+00 0.0000e+00 -1.0000e+00
<mgrwt>
<rscale>  4 0.21518981E+03</rscale>
<asrwt>0</asrwt>
<pdfrwt beam="1">  1       21 0.26980361E-01 0.21518981E+03</pdfrwt>
<pdfrwt beam="2">  1       21 0.20960541E+00 0.21518981E+03</pdfrwt>
<totfact> 0.14915147E+03</totfact>
</mgrwt>
</event>
<event>
 6      1 +2.5168241e+02 2.42969000e+02 7.54677100e-03 1.11671100e-01
       21 -1    0    0  503  502 +0.0000000000e+00 +0.0000000000e+00 +9.4590542628e+02 9.4590542628e+02 0.0000000000e+00 0.0000e+00 -1.0000e+00
       21 -1    0    0  501  503 -0.0000000000e+00 -0.0000000000e+00 -1.2747340202e+02 1.2747340202e+02 0.0000000000e+00 0.0000e+00 -1.0000e+00
        6  1    1    2  501    0 +9.2297326735e+01 +9.3497696836e+01 +2.6077108541e+02 3.3939825401e+02 1.7300000000e+02 0.0000e+00 -1.0000e+00
       -6  1    1    2    0  504 -7.2900419562e+01 -1.9285112660e+02 +1.4797874384e+02 3.0713634893e+02 1.7300000000e+02 0.0000e+00 -1.0000e+00
       21  1    1    2  504  505 -4.3016186246e+01 +6.6828614985e+01 +2.6195277999e+02 2.7374388579e+02 0.0000000000e+00 0.0000e+00 -1.0000e+00
       21  1    1    2  505  502 +2.3619279073e+01 +3.2524814781e+01 +1.4772941501e+02 1.5310033958e+02 0.0000000000e+00 0.0000e+00 -1.0000e+00
<mgrwt>
<rscale>  4 0.24296902E+03</rscale>
<asrwt>0</asrwt>
<pdfrwt beam="1">  1       21 0.14552391E+00 0.24296902E+03</pdfrwt>
<pdfrwt beam="2">  1       21 0.19611293E-01 0.24296902E+03</pdfrwt>
<totfact> 0.74726206E+03</totfact>
</mgrwt>
</event>
<event>
 6      1 +2.5168241e+02 1.84664900e+02 7.54677100e-03 1.16820100e-01
       21 -1    0    0  505  502 +0.0000000000e+00 +0.0000000000e+00 +8.1821969678e+02 8.1821969678e+02 0.0000000000e+00 0.0000e+00 1.0000e+00
       21 -1    0    0  501  503 -0.0000000000e+00 -0.0000000000e+00 -3.2953408449e+02 3.2953408449e+02 0.0000000000e+00 0.0000e+00 1.0000e+00
        6  1    1    2  501    0 -6.1882735828e+01 +1.1383750771e+02 +1.7063940587e+02 2.7538202191e+02 1.7300000000e+02 0.0000e+00 1.0000e+00
       -6  1    1    2    0  502 +6.1742035076e+01 +6.2675729691e+01 +4.4334925745e+02 4.8397095995e+02 1.7300000000e+02 0.0000e+00 -1.0000e+00
       21  1    1    2  504  503 -7.1007553646e+00 -1.5519026557e+02 -2.3207901009e+02 2.7927603940e+02 0.0000000000e+00 0.0000e+00 1.0000e+00
       21  1    1    2  505  504 +7.2414561164e+00 -2.1322971837e+01 +1.0677595906e+02 1.0912476002e+02 0.0000000000e+00 0.0000e+00 -1.0000e+00
<mgrwt>
<rscale>  4 0.18466488E+03</rscale>
<asrwt>0</asrwt>
<pdfrwt beam="1">  1       21 0.12587995E+00 0.18466488E+03</pdfrwt>
<pdfrwt beam="2">  1       21 0.50697552E-01 0.18466488E+03</pdfrwt>
<totfact> 0.17485232E+03</totfact>
</mgrwt>
</event>
<event>
 6      1 +2.5168241e+02 2.29305900e+02 7.54677100e-03 1.16820100e-01
       21 -1    0    0  505  502 +0.0000000000e+00 +0.0000000000e+00 +4.0561004244e+02 4.0561004244e+02 0.0000000000e+00 0.0000e+00 -1.0000e+00
       21 -1    0    0  501  503 -0.0000000000e+00 -0.0000000000e+00 -2.2621548700e+02 2.2621548700e+02 0.0000000000e+00 0.0000e+00 -1.0000e+00
        6  1    1    2  501    0 +1.2170902245e+02 +6.5534280981e+01 +1.0223490387e+02 2.4390326709e+02 1.7300000000e+02 0.0000e+00 -1.0000e+00
       -6  1    1    2    0  502 -1.1118847900e+02 -1.2847245900e+02 +5.9525046586e+01 2.4968035917e+02 1.7300000000e+02 0.0000e+00 -1.0000e+00
       21  1    1    2  504  503 +1.7978952960e+01 +1.5816095063e+01 -4.7350583888e+01 5.3060997042e+01 0.0000000000e+00 0.0000e+00 -1.0000e+00
       21  1    1    2  505  504 -2.8499496406e+01 +4.7122082960e+01 +6.4985188867e+01 8.5180906135e+01 0.0000000000e+00 0.0000e+00 1.0000e+00
<mgrwt>
<rscale>  4 0.22930587E+03</rscale>
<asrwt>0</asrwt>
<pdfrwt beam="1">  1       21 0.62401545E-01 0.22930587E+03</pdfrwt>
<pdfrwt beam="2">  1       21 0.34802383E-01 0.22930587E+03</pdfrwt>
<totfact> 0.18550027E+04</totfact>
</mgrwt>
</event>
<event>
 6      1 +2.5168241e+02 2.02304600e+02 7.54677100e-03 1.03924000e-01
       21 -1    0    0  504  502 +0.0000000000e+00 +0.0000000000e+00 +1.5652776222e+02 1.5652776222e+02 0.0000000000e+00 0.0000e+00 -1.0000e+00
       21 -1    0    0  501  503 -0.0000000000e+00 -0.0000000000e+00 -8.8287456492e+02 8.8287456492e+02 0.0000000000e+00 0.0000e+00 -1.0000e+00
        6  1    1    2  501    0 +4.7321128229e+01 +8.6159122668e+01 -5.7490492648e+02 6.0836449444e+02 1.7300000000e+02 0.0000e+00 -1.0000e+00
       -6  1    1    2    0  505 -2.8122542589e+01 -1.2017186753e+02 -2.4545811994e+02 3.2467036174e+02 1.7300000000e+02 0.0000e+00 -1.0000e+00
       21  1    1    2  504  503 -1.5456064804e+01 +1.3500672342e+01 +7.6283997326e+01 7.8996242574e+01 0.0000000000e+00 0.0000e+00 -1.0000e+00
       21  1    1    2  505  502 -3.7425208358e+00 +2.0512072522e+01 +1.7732246400e+01 2.7371228393e+01 0.0000000000e+00 0.0000e+00 -1.0000e+00
<mgrwt>
<rscale>  4 0.20230458E+03</rscale>
<asrwt>0</asrwt>
<pdfrwt beam="1">  1       21 0.24081194E-01 0.20230458E+03</pdfrwt>
<pdfrwt beam="2">  1       21 0.13582685E+00 0.20230458E+03</pdfrwt>
<totfact> 0.62435993E+03</totfact>
</mgrwt>
</event>
<event>
 6      1 +2.5168241e+02 2.96043300e+02 7.54677100e-03 1.17132900e-01
       21 -1    0    0  505  502 +0.0000000000e+00 +0.0000000000e+00 +1.5436685316e+02 1.5436685316e+02 0.0000000000e+00 0.0000e+00 -1.0000e+00
       21 -1    0    0  504  503 -0.0000000000e+00 -0.0000000000e+00 -1.0661576423e+03 1.0661576423e+03 0.0000000000e+00 0.0000e+00 -1.0000e+00
        6  1    1    2  501    0 +2.3269569776e+02 -3.1917353114e+01 -5.6297616851e+02 6.3406401214e+02 1.7300000000e+02 0.0000e+00 -1.0000e+00
       -6  1    1    2    0  502 -2.0690106668e+02 +3.2713358290e+01 -1.3538534836e+02 3.0353979600e+02 1.7300000000e+02 0.0000e+00 -1.0000e+00
       21  1    1    2  504  501 +4.6888028835e+01 +4.4551761965e+01 -1.7946530101e+02 1.9076462200e+02 0.0000000000e+00 0.0000e+00 1.0000e+00
       21  1    1    2  505  503 -7.2682659911e+01 -4.5347767141e+01 -3.3963971320e+01 9.2156065369e+01 0.0000000000e+00 0.0000e+00 -1.0000e+00
<mgrwt>
<rscale>  4 0.29604331E+03</rscale>
<asrwt>0</asrwt>
<pdfrwt beam="1">  1       21 0.23748747E-01 0.29604331E+03</pdfrwt>
<pdfrwt beam="2">  1       21 0.16402425E+00 0.29604331E+03</pdfrwt>
<totfact> 0.36429971E+03</totfact>
</mgrwt>
</event>
<event>
 6      1 +2.5168241e+02 1.83205500e+02 7.54677100e-03 1.11671100e-01
       21 -1    0    0  503  502 +0.0000000000e+00 +0.0000000000e+00 +5.6789077714e+01 5.6789077714e+01 0.0000000000e+00 0.0000e+00 -1.0000e+00
       21 -1    0    0  501  503 -0.0000000000e+00 -0.0000000000e+00 -9.8886340700e+02 9.8886340700e+02 0.0000000000e+00 0.0000e+00 -1.0000e+00
        6  1    1    2  501    0 -1.9764368739e+00 +5.6595154903e+01 -4.0326580506e+02 4.4244686392e+02 1.7300000000e+02 0.0000e+00 1.0000e+00
       -6  1    1    2    0  504 -1.4839514828e+01 -6.2953046298e+01 -4.5607484823e+02 4.9205341624e+02 1.7300000000e+02 0.0000e+00 -1.0000e+00
       21  1    1    2  504  505 +2.7019045869e+01 +3.4103902597e+01 -6.8695268765e+01 8.1315096770e+01 0.0000000000e+00 0.0000e+00 -1.0000e+00
       21  1    1    2  505  502 -1.0203094167e+01 -2.7746011202e+01 -4.0384072266e+00 2.9837107787e+01 0.0000000000e+00 0.0000e+00 -1.0000e+00
<mgrwt>
<rscale>  4 0.18320550E+03</rscale>
<asrwt>0</asrwt>
<pdfrwt beam="1">  1       21 0.87367814E-02 0.18320550E+03</pdfrwt>
<pdfrwt beam="2">  1       21 0.15213283E+00 0.18320550E+03</pdfrwt>
<totfact> 0.29808109E+04</totfact>
</mgrwt>
</event>
<event>
 6      1 +2.5168241e+02 1.77333200e+02 7.54677100e-03 1.12989000e-01
       21 -1    0    0  503  502 +0.0000000000e+00 +0.0000000000e+00 +1.0840150158e+03 1.0840150158e+03 0.0000000000e+00 0.0000e+00 1.0000e+00
       21 -1    0    0  504  503 -0.0000000000e+00 -0.0000000000e+00 -1.2484583449e+02 1.2484583449e+02 0.0000000000e+00 0.0000e+00 1.0000e+00
        6  1    1    2  501    0 -4.4486252861e+01 -7.0757155429e+01 +2.6213694777e+02 3.2500827855e+02 1.7300000000e+02 0.0000e+00 -1.0000e+00
       -6  1    1    2    0  502 -8.4733041763e+00 +2.8491668299e+01 +7.5754771411e+02 7.7761887272e+02 1.7300000000e+02 0.0000e+00 1.0000e+00
       21  1    1    2  504  505 +1.4850139124e+01 +2.0538580230e+01 +6.4742536761e+00 2.6158667216e+01 0.0000000000e+00 0.0000e+00 -1.0000e+00
       21  1    1    2  505  501 +3.8109417914e+01 +2.1726906900e+01 -6.6989734270e+01 8.0075031781e+01 0.0000000000e+00 0.0000e+00 1.0000e+00
<mgrwt>
<rscale>  4 0.17733316E+03</rscale>
<asrwt>0</asrwt>
<pdfrwt beam="1">  1       21 0.16677153E+00 0.17733316E+03</pdfrwt>
<pdfrwt beam="2">  1       21 0.19207052E-01 0.17733316E+03</pdfrwt>
<totfact> 0.56736582E+03</totfact>
</mgrwt>
</event>
<event>
 6      1 +2.5168241e+02 2.50417200e+02 7.54677100e-03 1.11471900e-01
       21 -1    0    0  503  502 +0.0000000000e+00 +0.0000000000e+00 +7.5794527772e+02 7.5794527772e+02 0.0000000000e+00 0.0000e+00 -1.0000e+00
       21 -1    0    0  501  503 -0.0000000000e+00 -0.0000000000e+00 -1.5957998751e+03 1.5957998751e+03 0.0000000000e+00 0.0000e+00 -1.0000e+00
        6  1    1    2  501    0 +1.1845510217e+02 -8.4294499903e+00 -2.6626114887e+02 3.3900835720e+02 1.7300000000e+02 0.0000e+00 -1.0000e+00
       -6  1    1    2    0  504 -1.1803927814e+02 +1.8505472186e+02 -1.2021552627e+03 1.2342142427e+03 1.7300000000e+02 0.0000e+00 -1.0000e+00
       21  1    1    2  504  505 -2.6315845806e+01 +4.7255110609e+00 -6.0206349155e+01 6.5876085751e+01 0.0000000000e+00 0.0000e+00 1.0000e+00
       21  1    1    2  505  502 +2.5900021783e+01 -1.8135078293e+02 +6.9076816332e+02 7.1464646718e+02 0.0000000000e+00 0.0000e+00 -1.0000e+00
<mgrwt>
<rscale>  4 0.25041719E+03</rscale>
<asrwt>0</asrwt>
<pdfrwt beam="1">  1       21 0.11660697E+00 0.25041719E+03</pdfrwt>
<pdfrwt beam="2">  1       21 0.24550767E+00 0.25041719E+03</pdfrwt>
<totfact> 0.36793040E+01</totfact>
</mgrwt>
</event>
<event>
 6      1 +2.5168241e+02 1.77757000e+02 7.54677100e-03 1.17132900e-01
       21 -1    0    0  505  502 +0.0000000000e+00 +0.0000000000e+00 +6.6259848377e+02 6.6259848377e+02 0.0000000000e+00 0.0000e+00 1.0000e+00
       21 -1    0    0  504  503 -0.0000000000e+00 -0.0000000000e+00 -7.0917484422e+02 7.0917484422e+02 0.0000000000e+00 0.0000e+00 -1.0000e+00
        6  1    1    2  501    0 +1.7280708431e+00 +4.6550480070e+01 -5.3118103887e+02 5.6058204527e+02 1.7300000000e+02 0.0000e+00 -1.0000e+00
       -6  1    1    2    0  502 -3.3230530834e+01 +1.1551698375e+01 +5.5879613516e+01 1.8517354325e+02 1.7300000000e+02 0.0000e+00 -1.0000e+00
       21  1    1    2  504  501 +3.6279194385e+01 -2.0055010255e+01 -9.3557285185e+01 1.0232960956e+02 0.0000000000e+00 0.0000e+00 1.0000e+00
       21  1    1    2  505  503 -4.7767343939e+00 -3.8047168190e+01 +5.2228235008e+02 5.2368812991e+02 0.0000000000e+00 0.0000e+00 1.0000e+00
<mgrwt>
<rscale>  4 0.17775695E+03</rscale>
<asrwt>0</asrwt>
<pdfrwt beam="1">  1       21 0.10193823E+00 0.17775695E+03</pdfrwt>
<pdfrwt beam="2">  1       21 0.10910382E+00 0.17775695E+03</pdfrwt>
<totfact> 0.53145854E+02</totfact>
</mgrwt>
</event>
<event>
 6      1 +2.5168241e+02 1.97133100e+02 7.54677100e-03 1.17132900e-01
       21 -1    0    0  503  502 +0.0000000000e+00 +0.0000000000e+00 +8.8460184558e+02 8.8460184558e+02 0.0000000000e+00 0.0000e+00 1.0000e+00
       21 -1    0    0  504  503 -0.0000000000e+00 -0.0000000000e+00 -2.4059002993e+02 2.4059002993e+02 0.0000000000e+00 0.0000e+00 1.0000e+00
        6  1    1    2  501    0 -7.2792933022e+01 +3.4665784897e+01 +2.8613287214e+02 3.4394992115e+02 1.7300000000e+02 0.0000e+00 1.0000e+00
       -6  1    1    2    0  505 -7.7519982614e+00 -1.1432914435e+02 -1.3597376521e+02 2.4809093404e+02 1.7300000000e+02 0.0000e+00 1.0000e+00
       21  1    1    2  504  501 +2.7983628182e+01 +1.3756618111e+01 -9.7164327508e-01 3.1197308838e+01 0.0000000000e+00 0.0000e+00 1.0000e+00
       21  1    1    2  505  502 +5.2561303102e+01 +6.5906741345e+01 +4.9482435200e+02 5.0195371148e+02 0.0000000000e+00 0.0000e+00 1.0000e+00
<mgrwt>
<rscale>  4 0.19713312E+03</rscale>
<asrwt>0</asrwt>
<pdfrwt beam="1">  1       21 0.13609259E+00 0.19713312E+03</pdfrwt>
<pdfrwt beam="2">  1       21 0.37013851E-01 0.19713312E+03</pdfrwt>
<totfact> 0.26983188E+03</totfact>
</mgrwt>
</event>
<event>
 6      1 +2.5168241e+02 2.27440700e+02 7.54677100e-03 1.03924000e-01
       21 -1    0    0  504  502 +0.0000000000e+00 +0.0000000000e+00 +3.6155889430e+02 3.6155889430e+02 0.0000000000e+00 0.0000e+00 1.0000e+00
       21 -1    0    0  501  503 -0.0000000000e+00 -0.0000000000e+00 -1.0190732285e+03 1.0190732285e+03 0.0000000000e+00 0.0000e+00 1.0000e+00
        6  1    1    2  501    0 -1.9337297067e+02 +4.1559054716e+01 -3.2519631377e+02 4.1809317538e+02 1.7300000000e+02 0.0000e+00 1.0000e+00
       -6  1    1    2    0  505 +6.4148613341e+01 -1.3299478071e+02 -6.0299082380e+02 6.4446069692e+02 1.7300000000e+02 0.0000e+00 1.0000e+00
       21  1    1    2  504  503 +7.0569553439e+01 +6.8005665662e+01 +2.0352808227e+02 2.2589491518e+02 0.0000000000e+00 0.0000e+00 1.0000e+00
       21  1    1    2  505  502 +5.8654803888e+01 +2.3430060335e+01 +6.7144721076e+01 9.2183335342e+01 0.0000000000e+00 0.0000e+00 1.0000e+00
<mgrwt>
<rscale>  4 0.22744073E+03</rscale>
<asrwt>0</asrwt>
<pdfrwt beam="1">  1       21 0.55624446E-01 0.22744073E+03</pdfrwt>
<pdfrwt beam="2">  1       21 0.15678049E+00 0.22744073E+03</pdfrwt>
<totfact> 0.78128884E+02</totfact>
</mgrwt>
</event>
<event>
 6      1 +2.5168241e+02 1.88178800e+02 7.54677100e-03 1.16820100e-01
       21 -1    0    0  505  502 +0.0000000000e+00 +0.0000000000e+00 +1.0527766016e+03 1.0527766016e+03 0.0000000000e+00 0.0000e+00 1.0000e+00
       21 -1    0    0  504  503 -0.0000000000e+00 -0.0000000000e+00 -1.3222569935e+02 1.3222569935e+02 0.0000000000e+00 0.0000e+00 -1.0000e+00
        6  1    1    2  501    0 -9.0636736694e+01 +2.5077511831e+01 +3.5672165524e+02 4.0745949364e+02 1.7300000000e+02 0.0000e+00 1.0000e+00
       -6  1    1    2    0  503 +3.3432111093e+01 -5.7273263369e+01 +4.4795280390e+02 4.8475627616e+02 1.7300000000e+02 0.0000e+00 -1.0000e+00
       21  1    1    2  504  502 +3.4045863931e+01 +2.1179537922e+01 -8.3045390632e+01 9.2218385275e+01 0.0000000000e+00 0.0000e+00 -1.0000e+00
       21  1    1    2  505  501 +2.3158761670e+01 +1.1016213616e+01 +1.9892183374e+02 2.0056814588e+02 0.0000000000e+00 0.0000e+00 1.0000e+00
<mgrwt>
<rscale>  4 0.18817882E+03</rscale>
<asrwt>0</asrwt>
<pdfrwt beam="1">  1       21 0.16196563E+00 0.18817882E+03</pdfrwt>
<pdfrwt beam="2">  1       21 0.20342416E-01 0.18817882E+03</pdfrwt>
<totfact> 0.54666124E+03</totfact>
</mgrwt>
</event>
<event>
 6      1 +2.5168241e+02 3.11796600e+02 7.54677100e-03 1.09842800e-01
       21 -1    0    0  504  502 +0.0000000000e+00 +0.0000000000e+00 +7.3067452181e+02 7.3067452181e+02 0.0000000000e+00 0.0000e+00 -1.0000e+00
       21 -1    0    0  505  503 -0.0000000000e+00 -0.0000000000e+00 -1.1696218823e+03 1.1696218823e+03 0.0000000000e+00 0.0000e+00 1.0000e+00
        6  1    1    2  501    0 -2.3649142447e+02 +1.4397429420e+02 +1.9353554884e+02 3.7952839143e+02 1.7300000000e+02 0.0000e+00 -1.0000e+00
       -6  1    1    2    0  503 +4.1499562617e+01 -6.6595692850e+01 -9.6401536131e+02 9.8255372212e+02 1.7300000000e+02 0.0000e+00 1.0000e+00
       21  1    1    2  504  501 +2.3111356756e+02 -6.4514019085e+01 +3.8901682716e+01 2.4308204518e+02 0.0000000000e+00 0.0000e+00 -1.0000e+00
       21  1    1    2  505  502 -3.6121705706e+01 -1.2864582262e+01 +2.9263076931e+02 2.9513224535e+02 0.0000000000e+00 0.0000e+00 -1.0000e+00
<mgrwt>
<rscale>  4 0.27544263E+03</rscale>
<asrwt>0</asrwt>
<pdfrwt beam="1">  1       21 0.11241147E+00 0.31179661E+03</pdfrwt>
<pdfrwt beam="2">  1       21 0.17994183E+00 0.31179661E+03</pdfrwt>
<totfact> 0.99032251E+01</totfact>
</mgrwt>
</event>
<event>
 6      1 +2.5168241e+02 2.16461300e+02 7.54677100e-03 1.09842800e-01
       21 -1    0    0  504  502 +0.0000000000e+00 +0.0000000000e+00 +2.9564411062e+02 2.9564411062e+02 0.0000000000e+00 0.0000e+00 1.0000e+00
       21 -1    0    0  505  503 -0.0000000000e+00 -0.0000000000e+00 -1.3191113880e+03 1.3191113880e+03 0.0000000000e+00 0.0000e+00 -1.0000e+00
        6  1    1    2  501    0 +1.1681833796e+02 +2.0334166047e+02 +7.2030431324e+01 3.0018617224e+02 1.7300000000e+02 0.0000e+00 1.0000e+00
       -6  1    1    2    0  503 -8.9636345020e+01 -8.7167261573e+01 -1.1514063980e+03 1.1710245511e+03 1.7300000000e+02 0.0000e+00 -1.0000e+00
       21  1    1    2  504  501 -4.0704582416e+01 -9.3223619016e+01 +2.9218555448e+01 1.0583586422e+02 0.0000000000e+00 0.0000e+00 1.0000e+00
       21  1    1    2  505  502 +1.3522589473e+01 -2.2950779879e+01 +2.6690133913e+01 3.7708911035e+01 0.0000000000e+00 0.0000e+00 1.0000e+00
<mgrwt>
<rscale>  4 0.21646130E+03</rscale>
<asrwt>0</asrwt>
<pdfrwt beam="1">  1       21 0.45483709E-01 0.21646130E+03</pdfrwt>
<pdfrwt beam="2">  1       21 0.20294021E+00 0.21646130E+03</pdfrwt>
<totfact> 0.57993589E+02</totfact>
</mgrwt>
</event>
<event>
 6      1 +2.5168241e+02 2.61938300e+02 7.54677100e-03 1.15942100e-01
       21 -1    0    0  504  502 +0.0000000000e+00 +0.0000000000e+00 +5.4666980015e+02 5.4666980015e+02 0.0000000000e+00 0.0000e+00 1.0000e+00
       21 -1    0    0  501  503 -0.0000000000e+00 -0.0000000000e+00 -7.1670461332e+02 7.1670461332e+02 0.0000000000e+00 0.0000e+00 1.0000e+00
        6  1    1    2  501    0 +1.1661414112e+02 -1.4398180271e+02 +4.4669920950e+01 2.5739856111e+02 1.7300000000e+02 0.0000e+00 1.0000e+00
       -6  1    1    2    0  502 -6.3241417044e+01 +1.9550121238e+02 +3.4704359260e+02 4.3884901281e+02 1.7300000000e+02 0.0000e+00 1.0000e+00
       21  1    1    2  504  505 -4.2699388525e+01 -2.7300129630e+01 -4.0516833812e+02 4.0832574873e+02 0.0000000000e+00 0.0000e+00 1.0000e+00
       21  1    1    2  505  503 -1.0673335554e+01 -2.4219280042e+01 -1.5657998860e+02 1.5880109083e+02 0.0000000000e+00 0.0000e+00 -1.0000e+00
<mgrwt>
<rscale>  4 0.26193831E+03</rscale>
<asrwt>0</asrwt>
<pdfrwt beam="1">  1       21 0.84103046E-01 0.26193831E+03</pdfrwt>
<pdfrwt beam="2">  1       21 0.11026225E+00 0.26193831E+03</pdfrwt>
<totfact> 0.74832613E+02</totfact>
</mgrwt>
</event>
<event>
 6      1 +2.5168241e+02 2.00363100e+02 7.54677100e-03 1.16820100e-01
       21 -1    0    0  505  502 +0.0000000000e+00 +0.0000000000e+00 +8.6150656579e+01 8.6150656579e+01 0.0000000000e+00 0.0000e+00 -1.0000e+00
       21 -1    0    0  501  503 -0.0000000000e+00 -0.0000000000e+00 -1.5676328884e+03 1.5676328884e+03 0.0000000000e+00 0.0000e+00 -1.0000e+00
        6  1    1    2  501    0 -9.4763273671e+01 +3.8020991815e+01 -7.8380496577e+02 8.0913836779e+02 1.7300000000e+02 0.0000e+00 -1.0000e+00
       -6  1    1    2    0  502 +1.0213322904e+02 -3.3483827387e+01 -5.5309911022e+02 5.8940647171e+02 1.7300000000e+02 0.0000e+00 -1.0000e+00
       21  1    1    2  504  503 +2.2639438359e+01 +1.1648787963e+01 -1.9374249387e+02 1.9540827096e+02 0.0000000000e+00 0.0000e+00 1.0000e+00
       21  1    1    2  505  504 -3.0009393727e+01 -1.6185952391e+01 +4.9164338007e+01 5.9830434549e+01 0.0000000000e+00 0.0000e+00 -1.0000e+00
<mgrwt>
<rscale>  4 0.20036305E+03</rscale>
<asrwt>0</asrwt>
<pdfrwt beam="1">  1       21 0.13253947E-01 0.20036305E+03</pdfrwt>
<pdfrwt beam="2">  1       21 0.24117430E+00 0.20036305E+03</pdfrwt>
<totfact> 0.36509305E+03</totfact>
</mgrwt>
</event>
<event>
 6      1 +2.5168241e+02 2.72349100e+02 7.54677100e-03 1.17132900e-01
       21 -1    0    0  505  502 +0.0000000000e+00 +0.0000000000e+00 +3.2886248411e+02 3.2886248411e+02 0.0000000000e+00 0.0000e+00 -1.0000e+00
       21 -1    0    0  504  503 -0.0000000000e+00 -0.0000000000e+00 -1.1981478728e+03 1.1981478728e+03 0.0000000000e+00 0.0000e+00 -1.0000e+00
        6  1    1    2  501    0 -3.6182878042e+02 -1.3639308956e+02 -2.2782512053e+02 4.8099524609e+02 1.7300000000e+02 0.0000e+00 -1.0000e+00
       -6  1    1    2    0  502 +1.3709233487e+02 +1.2272532883e+02 -7.2897501699e+02 7.7148518457e+02 1.7300000000e+02 0.0000e+00 -1.0000e+00
       21  1    1    2  504  501 +6.1672133217e+01 -1.0711454079e+01 -3.2565944950e+01 7.0560102285e+01 0.0000000000e+00 0.0000e+00 -1.0000e+00
       21  1    1    2  505  503 +1.6306431233e+02 +2.4379214804e+01 +1.2008069378e+02 2.0396982397e+02 0.0000000000e+00 0.0000e+00 -1.0000e+00
<mgrwt>
<rscale>  4 0.27234906E+03</rscale>
<asrwt>0</asrwt>
<pdfrwt beam="1">  1       21 0.50594228E-01 0.27234906E+03</pdfrwt>
<pdfrwt beam="2">  1       21 0.18433044E+00 0.27234906E+03</pdfrwt>
<totfact> 0.58452685E+02</totfact>
</mgrwt>
</event>
<event>
 6      1 +2.5168241e+02 1.90227500e+02 7.54677100e-03 1.16820100e-01
       21 -1    0    0  505  502 +0.0000000000e+00 +0.0000000000e+00 +4.6633787491e+01 4.6633787491e+01 0.0000000000e+00 0.0000e+00 -1.0000e+00
       21 -1    0    0  501  503 -0.0000000000e+00 -0.0000000000e+00 -1.9659288024e+03 1.9659288024e+03 0.0000000000e+00 0.0000e+00 -1.0000e+00
        6  1    1    2  501    0 -1.6195787456e+01 +1.1452607753e+02 -6.1524106287e+02 6.4948371143e+02 1.7300000000e+02 0.0000e+00 -1.0000e+00
       -6  1    1    2    0  502 -1.3560120057e+01 -7.5059745888e+01 -9.9477335851e+02 1.0125812941e+03 1.7300000000e+02 0.0000e+00 -1.0000e+00
       21  1    1    2  504  503 -1.1638074132e+01 +3.4790322435e+01 -2.3425988559e+02 2.3711496221e+02 0.0000000000e+00 0.0000e+00 -1.0000e+00
       21  1    1    2  505  504 +4.1393981646e+01 -7.4256654077e+01 -7.5020707903e+01 1.1338262215e+02 0.0000000000e+00 0.0000e+00 -1.0000e+00
<mgrwt>
<rscale>  4 0.19022751E+03</rscale>
<asrwt>0</asrwt>
<pdfrwt beam="1">  1       21 0.71744278E-02 0.19022751E+03</pdfrwt>
<pdfrwt beam="2">  1       21 0.30245063E+00 0.19022751E+03</pdfrwt>
<totfact> 0.48040879E+03</totfact>
</mgrwt>
</event>
<event>
 6      1 +2.5168241e+02 2.26136900e+02 7.54677100e-03 1.17132900e-01
       21 -1    0    0  505  502 +0.0000000000e+00 +0.0000000000e+00 +4.1854973818e+02 4.1854973818e+02 0.0000000000e+00 0.0000e+00 1.0000e+00
       21 -1    0    0  504  503 -0.0000000000e+00 -0.0000000000e+00 -1.6505523507e+03 1.6505523507e+03 0.0000000000e+00 0.0000e+00 1.0000e+00
        6  1    1    2  501    0 +2.2158529813e+02 +1.8744878963e+02 +7.4012977541e+01 3.4589595824e+02 1.7300000000e+02 0.0000e+00 1.0000e+00
       -6  1    1    2    0  502 -8.0667465998e+01 -1.5903106159e+02 -8.5180422604e+02 8.8729789706e+02 1.7300000000e+02 0.0000e+00 1.0000e+00
       21  1    1    2  504  501 -2.6061139918e+01 +8.9380506285e+01 -6.0536922424e+02 6.1248669829e+02 0.0000000000e+00 0.0000e+00 1.0000e+00
       21  1    1    2  505  503 -1.1485669221e+02 -1.1779823433e+02 +1.5115786018e+02 2.2342153534e+02 0.0000000000e+00 0.0000e+00 1.0000e+00
<mgrwt>
<rscale>  4 0.22613687E+03</rscale>
<asrwt>0</asrwt>
<pdfrwt beam="1">  1       21 0.64392269E-01 0.22613687E+03</pdfrwt>
<pdfrwt beam="2">  1       21 0.25393113E+00 0.22613687E+03</pdfrwt>
<totfact> 0.13382978E+02</totfact>
</mgrwt>
</event>
<event>
 6      1 +2.5168241e+02 1.78421600e+02 7.54677100e-03 1.12989000e-01
       21 -1    0    0  505  502 +0.0000000000e+00 +0.0000000000e+00 +1.5410863589e+02 1.5410863589e+02 0.0000000000e+00 0.0000e+00 1.0000e+00
       21 -1    0    0  504  503 -0.0000000000e+00 -0.0000000000e+00 -7.9393124579e+02 7.9393124579e+02 0.0000000000e+00 0.0000e+00 1.0000e+00
        6  1    1    2  501    0 +1.4265325105e+01 +1.4669854882e+02 -2.6657322016e+02 3.5030593120e+02 1.7300000000e+02 0.0000e+00 1.0000e+00
       -6  1    1    2    0  502 +2.2836012363e+01 -1.4356581259e+01 +2.2175499946e+01 1.7648894493e+02 1.7300000000e+02 0.0000e+00 1.0000e+00
       21  1    1    2  504  501 -2.2521731908e+01 -7.9721913916e+01 -3.0077001550e+02 3.1197021363e+02 0.0000000000e+00 0.0000e+00 1.0000e+00
       21  1    1    2  505  503 -1.4579605559e+01 -5.2620053643e+01 -9.4654874186e+01 1.0927479193e+02 0.0000000000e+00 0.0000e+00 1.0000e+00
<mgrwt>
<rscale>  4 0.17842159E+03</rscale>
<asrwt>0</asrwt>
<pdfrwt beam="1">  1       21 0.23709021E-01 0.17842159E+03</pdfrwt>
<pdfrwt beam="2">  1       21 0.12214327E+00 0.17842159E+03</pdfrwt>
<totfact> 0.85592612E+03</totfact>
</mgrwt>
</event>
<event>
 6      1 +2.5168241e+02 1.97658300e+02 7.54677100e-03 1.17132900e-01
       21 -1    0    0  505  502 +0.0000000000e+00 +0.0000000000e+00 +1.2839007474e+03 1.2839007474e+03 0.0000000000e+00 0.0000e+00 -1.0000e+00
       21 -1    0    0  504  503 -0.0000000000e+00 -0.0000000000e+00 -3.5369420316e+02 3.5369420316e+02 0.0000000000e+00 0.0000e+00 -1.0000e+00
        6  1    1    2  501    0 +2.8578126192e+01 -8.2537762207e+01 +4.6067119543e+02 4.9977609165e+02 1.7300000000e+02 0.0000e+00 -1.0000e+00
       -6  1    1    2    0  502 -1.0618602608e+02 -3.3334610780e+01 -3.6839698081e+01 2.0898045785e+02 1.7300000000e+02 0.0000e+00 -1.0000e+00
       21  1    1    2  504  501 +7.3201359124e+01 +1.4728943077e+02 -1.7879120900e+02 2.4293808226e+02 0.0000000000e+00 0.0000e+00 -1.0000e+00
       21  1    1    2  505  503 +4.4065407592e+00 -3.1417057785e+01 +6.8516625590e+02 6.8590031881e+02 0.0000000000e+00 0.0000e+00 -1.0000e+00
<mgrwt>
<rscale>  4 0.19765825E+03</rscale>
<asrwt>0</asrwt>
<pdfrwt beam="1">  1       21 0.19752319E+00 0.19765825E+03</pdfrwt>
<pdfrwt beam="2">  1       21 0.54414493E-01 0.19765825E+03</pdfrwt>
<totfact> 0.44171588E+02</totfact>
</mgrwt>
</event>
<event>
 6      1 +2.5168241e+02 2.04187400e+02 7.54677100e-03 1.17132900e-01
       21 -1    0    0  503  502 +0.0000000000e+00 +0.0000000000e+00 +1.7067356900e+02 1.7067356900e+02 0.0000000000e+00 0.0000e+00 -1.0000e+00
       21 -1    0    0  504  503 -0.0000000000e+00 -0.0000000000e+00 -9.2667528509e+02 9.2667528509e+02 0.0000000000e+00 0.0000e+00 -1.0000e+00
        6  1    1    2  501    0 -7.2800999303e+00 +1.2121728800e+02 -4.2007143940e+02 4.7025061932e+02 1.7300000000e+02 0.0000e+00 -1.0000e+00
       -6  1    1    2    0  505 -2.8559911142e+01 -9.3713029020e+01 -3.4506996215e+02 3.9824625436e+02 1.7300000000e+02 0.0000e+00 -1.0000e+00
       21  1    1    2  504  501 +2.7528461142e+01 +4.0730659703e+00 -1.0578216159e+02 1.0938131353e+02 0.0000000000e+00 0.0000e+00 1.0000e+00
       21  1    1    2  505  502 +8.3115499305e+00 -3.1577324946e+01 +1.1492184706e+02 1.1947066688e+02 0.0000000000e+00 0.0000e+00 -1.0000e+00
<mgrwt>
<rscale>  4 0.20418738E+03</rscale>
<asrwt>0</asrwt>
<pdfrwt beam="1">  1       21 0.26257472E-01 0.20418738E+03</pdfrwt>
<pdfrwt beam="2">  1       21 0.14256543E+00 0.20418738E+03</pdfrwt>
<totfact> 0.46621568E+03</totfact>
</mgrwt>
</event>
<event>
 6      1 +2.5168241e+02 2.33688700e+02 7.54677100e-03 1.07240600e-01
       21 -1    0    0  505  502 +0.0000000000e+00 +0.0000000000e+00 +1.8921508445e+02 1.8921508445e+02 0.0000000000e+00 0.0000e+00 1.0000e+00
       21 -1    0    0  504  503 -0.0000000000e+00 -0.0000000000e+00 -6.7913807496e+02 6.7913807496e+02 0.0000000000e+00 0.0000e+00 1.0000e+00
        6  1    1    2  501    0 +1.0512849205e+02 -7.9009630910e+01 -3.8836662842e+02 4.4503051546e+02 1.7300000000e+02 0.0000e+00 -1.0000e+00
       -6  1    1    2    0  502 -9.7356118144e+01 +1.3250035714e+02 +4.0785236493e+01 2.4213011770e+02 1.7300000000e+02 0.0000e+00 1.0000e+00
       21  1    1    2  504  501 +4.4162398381e+01 -3.6448658716e+01 -6.7496213695e+01 8.8513055626e+01 0.0000000000e+00 0.0000e+00 1.0000e+00
       21  1    1    2  505  503 -5.1934772291e+01 -1.7042067514e+01 -7.4845384885e+01 9.2679470633e+01 0.0000000000e+00 0.0000e+00 1.0000e+00
<mgrwt>
<rscale>  4 0.23368870E+03</rscale>
<asrwt>0</asrwt>
<pdfrwt beam="1">  1       21 0.29110013E-01 0.23368870E+03</pdfrwt>
<pdfrwt beam="2">  1       21 0.10448278E+00 0.23368870E+03</pdfrwt>
<totfact> 0.81206551E+03</totfact>
</mgrwt>
</event>
<event>
 6      1 +2.5168241e+02 2.16408600e+02 7.54677100e-03 1.07240600e-01
       21 -1    0    0  505  502 +0.0000000000e+00 +0.0000000000e+00 +1.4800728626e+02 1.4800728626e+02 0.0000000000e+00 0.0000e+00 -1.0000e+00
       21 -1    0    0  504  503 -0.0000000000e+00 -0.0000000000e+00 -1.2364952718e+03 1.2364952718e+03 0.0000000000e+00 0.0000e+00 1.0000e+00
        6  1    1    2  501    0 -1.7144611144e+02 +1.2456605625e+02 -2.3686520407e+02 3.6186267615e+02 1.7300000000e+02 0.0000e+00 -1.0000e+00
       -6  1    1    2    0  502 +8.2530363903e+01 -2.5992663148e+01 -6.4492706844e+01 2.0389994787e+02 1.7300000000e+02 0.0000e+00 -1.0000e+00
       21  1    1    2  504  501 -2.7736807505e+01 -4.7459584547e+01 -6.3501769167e+01 8.3989388278e+01 0.0000000000e+00 0.0000e+00 1.0000e+00
       21  1    1    2  505  503 +1.1665255504e+02 -5.1113808556e+01 -7.2362830546e+02 7.3475054575e+02 0.0000000000e+00 0.0000e+00 1.0000e+00
<mgrwt>
<rscale>  4 0.21640857E+03</rscale>
<asrwt>0</asrwt>
<pdfrwt beam="1">  1       21 0.22770353E-01 0.21640857E+03</pdfrwt>
<pdfrwt beam="2">  1       21 0.19023003E+00 0.21640857E+03</pdfrwt>
<totfact> 0.27490079E+03</totfact>
</mgrwt>
</event>
<event>
 6      1 +2.5168241e+02 1.82539500e+02 7.54677100e-03 1.07064900e-01
       21 -1    0    0  504  502 +0.0000000000e+00 +0.0000000000e+00 +7.2017021515e+02 7.2017021515e+02 0.0000000000e+00 0.0000e+00 -1.0000e+00
       21 -1    0    0  501  503 -0.0000000000e+00 -0.0000000000e+00 -1.3444202298e+02 1.3444202298e+02 0.0000000000e+00 0.0000e+00 -1.0000e+00
        6  1    1    2  501    0 -6.5793962951e+00 -1.3632248367e+02 +1.2229744701e+02 2.5201740725e+02 1.7300000000e+02 0.0000e+00 -1.0000e+00
       -6  1    1    2    0  505 -2.4375851600e+01 -3.8250729755e+01 +1.9383873899e+02 2.6374183817e+02 1.7300000000e+02 0.0000e+00 -1.0000e+00
       21  1    1    2  504  503 +5.4488901807e+01 +1.7290123786e+02 +2.3130820003e+02 2.9388324531e+02 0.0000000000e+00 0.0000e+00 -1.0000e+00
       21  1    1    2  505  502 -2.3533653912e+01 +1.6719755667e+00 +3.8283806137e+01 4.4969747399e+01 0.0000000000e+00 0.0000e+00 1.0000e+00
<mgrwt>
<rscale>  4 0.18253951E+03</rscale>
<asrwt>0</asrwt>
<pdfrwt beam="1">  1       21 0.11079542E+00 0.18253951E+03</pdfrwt>
<pdfrwt beam="2">  1       21 0.20683389E-01 0.18253951E+03</pdfrwt>
<totfact> 0.14007339E+04</totfact>
</mgrwt>
</event>
<event>
 6      1 +2.5168241e+02 1.99578300e+02 7.54677100e-03 1.17132900e-01
       21 -1    0    0  503  502 +0.0000000000e+00 +0.0000000000e+00 +4.0412981779e+02 4.0412981779e+02 0.0000000000e+00 0.0000e+00 -1.0000e+00
       21 -1    0    0  504  503 -0.0000000000e+00 -0.0000000000e+00 -1.3787136856e+03 1.3787136856e+03 0.0000000000e+00 0.0000e+00 -1.0000e+00
        6  1    1    2  501    0 -5.1722125259e+01 +1.0266148622e+02 -1.5113906872e+02 2.5687852594e+02 1.7300000000e+02 0.0000e+00 1.0000e+00
       -6  1    1    2    0  505 +8.0938226429e+01 -5.4351123846e+01 +2.4863845667e+02 3.1820610192e+02 1.7300000000e+02 0.0000e+00 -1.0000e+00
       21  1    1    2  504  501 -6.9370284943e+00 -2.4155692746e+01 -1.1357945224e+03 1.1360725404e+03 0.0000000000e+00 0.0000e+00 -1.0000e+00
       21  1    1    2  505  502 -2.2279072676e+01 -2.4154669628e+01 +6.3711266672e+01 7.1686335134e+01 0.0000000000e+00 0.0000e+00 1.0000e+00
<mgrwt>
<rscale>  4 0.19957829E+03</rscale>
<asrwt>0</asrwt>
<pdfrwt beam="1">  1       21 0.62173817E-01 0.19957829E+03</pdfrwt>
<pdfrwt beam="2">  1       21 0.21210980E+00 0.19957829E+03</pdfrwt>
<totfact> 0.26773027E+02</totfact>
</mgrwt>
</event>
<event>
 6      1 +2.5168241e+02 1.76561000e+02 7.54677100e-03 1.09842800e-01
       21 -1    0    0  504  502 +0.0000000000e+00 +0.0000000000e+00 +2.1762665985e+02 2.1762665985e+02 0.0000000000e+00 0.0000e+00 -1.0000e+00
       21 -1    0    0  505  503 -0.0000000000e+00 -0.0000000000e+00 -6.2022757403e+02 6.2022757403e+02 0.0000000000e+00 0.0000e+00 -1.0000e+00
        6  1    1    2  501    0 +1.9985266730e+00 +3.0851270712e+01 -9.4919374800e-01 1.7574326725e+02 1.7300000000e+02 0.0000e+00 -1.0000e+00
       -6  1    1    2    0  503 -1.2984789288e+01 -3.3917032202e+01 -4.6418277534e+02 4.9670274687e+02 1.7300000000e+02 0.0000e+00 -1.0000e+00
       21  1    1    2  504  501 -2.0218425972e+01 +6.0310387324e+01 -1.3732587751e+01 6.5074661230e+01 0.0000000000e+00 0.0000e+00 -1.0000e+00
       21  1    1    2  505  502 +3.1204688586e+01 -5.7244625834e+01 +7.6263642658e+01 1.0033355853e+02 0.0000000000e+00 0.0000e+00 -1.0000e+00
<mgrwt>
<rscale>  4 0.17656102E+03</rscale>
<asrwt>0</asrwt>
<pdfrwt beam="1">  1       21 0.33481025E-01 0.17656102E+03</pdfrwt>
<pdfrwt beam="2">  1       21 0.95419626E-01 0.17656102E+03</pdfrwt>
<totfact> 0.79722751E+03</totfact>
</mgrwt>
</event>
<event>
 6      1 +2.5168241e+02 2.49778700e+02 7.54677100e-03 1.16820100e-01
       21 -1    0    0  505  502 +0.0000000000e+00 +0.0000000000e+00 +6.7501360562e+02 6.7501360562e+02 0.0000000000e+00 0.0000e+00 -1.0000e+00
       21 -1    0    0  504  503 -0.0000000000e+00 -0.0000000000e+00 -7.6807849311e+02 7.6807849311e+02 0.0000000000e+00 0.0000e+00 1.0000e+00
        6  1    1    2  501    0 -9.8426744764e+00 +2.2365284283e+02 +1.3376661255e+02 3.1295363711e+02 1.7300000000e+02 0.0000e+00 1.0000e+00
       -6  1    1    2    0  503 -1.4843318402e+02 -8.1236850936e+01 -1.9542228029e+02 3.1104775148e+02 1.7300000000e+02 0.0000e+00 1.0000e+00
       21  1    1    2  504  502 +1.5657279146e+02 -1.2023387799e+02 -4.0198760199e+02 4.4784512567e+02 0.0000000000e+00 0.0000e+00 1.0000e+00
       21  1    1    2  505  501 +1.7030670381e+00 -2.2182113906e+01 +3.7057838223e+02 3.7124558447e+02 0.0000000000e+00 0.0000e+00 -1.0000e+00
<mgrwt>
<rscale>  4 0.24977870E+03</rscale>
<asrwt>0</asrwt>
<pdfrwt beam="1">  1       21 0.10384825E+00 0.24977870E+03</pdfrwt>
<pdfrwt beam="2">  1       21 0.11816592E+00 0.24977870E+03</pdfrwt>
<totfact> 0.38814131E+02</totfact>
</mgrwt>
</event>
<event>
 6      1 +2.5168241e+02 1.74303300e+02 7.54677100e-03 1.16519500e-01
       21 -1    0    0  505  502 +0.0000000000e+00 +0.0000000000e+00 +4.6702904625e+02 4.6702904625e+02 0.0000000000e+00 0.0000e+00 1.0000e+00
       21 -1    0    0  504  503 -0.0000000000e+00 -0.0000000000e+00 -1.6630415847e+02 1.6630415847e+02 0.0000000000e+00 0.0000e+00 1.0000e+00
        6  1    1    2  501    0 -1.0080233222e+01 -1.2665378593e+01 -7.4192307579e+01 1.8893258433e+02 1.7300000000e+02 0.0000e+00 1.0000e+00
       -6  1    1    2    0  503 +6.0827421890e+01 +9.4704612301e+00 +3.1397111526e+02 3.6372589420e+02 1.7300000000e+02 0.0000e+00 1.0000e+00
       21  1    1    2  504  502 -2.6577396015e+01 -2.7622337386e+00 +2.2805431404e+01 3.5129412402e+01 0.0000000000e+00 0.0000e+00 1.0000e+00
       21  1    1    2  505  501 -2.4169792653e+01 +5.9571511019e+00 +3.8140648690e+01 4.5545313795e+01 0.0000000000e+00 0.0000e+00 1.0000e+00
<mgrwt>
<rscale>  4 0.17430332E+03</rscale>
<asrwt>0</asrwt>
<pdfrwt beam="1">  1       21 0.71850622E-01 0.17430332E+03</pdfrwt>
<pdfrwt beam="2">  1       21 0.25585255E-01 0.17430332E+03</pdfrwt>
<totfact> 0.25615796E+04</totfact>
</mgrwt>
</event>
<event>
 6      1 +2.5168241e+02 1.85068000e+02 7.54677100e-03 1.16820100e-01
       21 -1    0    0  505  502 +0.0000000000e+00 +0.0000000000e+00 +6.6049427463e+02 6.6049427463e+02 0.0000000000e+00 0.0000e+00 -1.0000e+00
       21 -1    0    0  501  503 -0.0000000000e+00 -0.0000000000e+00 -1.9156408019e+02 1.9156408019e+02 0.0000000000e+00 0.0000e+00 -1.0000e+00
        6  1    1    2  501    0 -8.8457368682e+00 -8.6968727559e+01 +1.9580470229e+02 2.7551821731e+02 1.7300000000e+02 0.0000e+00 1.0000e+00
       -6  1    1    2    0  502 +7.4863587435e+01 -8.4934551820e+01 -1.4034547571e+01 2.0723031473e+02 1.7300000000e+02 0.0000e+00 1.0000e+00
       21  1    1    2  504  503 -9.9387185276e+01 +1.0687040058e+02 +1.2781371255e+02 1.9399855729e+02 0.0000000000e+00 0.0000e+00 -1.0000e+00
       21  1    1    2  505  504 +3.3369334709e+01 +6.5032878800e+01 +1.5934632717e+02 1.7531126549e+02 0.0000000000e+00 0.0000e+00 -1.0000e+00
<mgrwt>
<rscale>  4 0.18506800E+03</rscale>
<asrwt>0</asrwt>
<pdfrwt beam="1">  1       21 0.10161450E+00 0.18506800E+03</pdfrwt>
<pdfrwt beam="2">  1       21 0.29471397E-01 0.18506800E+03</pdfrwt>
<totfact> 0.87655573E+03</totfact>
</mgrwt>
</event>
<event>
 6      1 +2.5168241e+02 1.74304900e+02 7.54677100e-03 9.87464100e-02
       21 -1    0    0  503  502 +0.0000000000e+00 +0.0000000000e+00 +1.2420698079e+03 1.2420698079e+03 0.0000000000e+00 0.0000e+00 -1.0000e+00
       21 -1    0    0  505  503 -0.0000000000e+00 -0.0000000000e+00 -6.6965829845e+01 6.6965829845e+01 0.0000000000e+00 0.0000e+00 -1.0000e+00
        6  1    1    2  501    0 +5.0364002358e+01 -3.1592455839e+01 +5.5042693944e+02 5.8002881968e+02 1.7300000000e+02 0.0000e+00 1.0000e+00
       -6  1    1    2    0  504 +1.3201536378e+01 -5.8903837870e+01 +3.9650516285e+02 4.3679433014e+02 1.7300000000e+02 0.0000e+00 -1.0000e+00
       21  1    1    2  504  502 -3.6347496650e+01 +2.9684427471e+01 +2.2016155923e+02 2.2510756964e+02 0.0000000000e+00 0.0000e+00 1.0000e+00
       21  1    1    2  505  501 -2.7218042085e+01 +6.0811866238e+01 +8.0103165690e+00 6.7104918313e+01 0.0000000000e+00 0.0000e+00 -1.0000e+00
<mgrwt>
<rscale>  4 0.17430491E+03</rscale>
<asrwt>0</asrwt>
<pdfrwt beam="1">  1       21 0.19108765E+00 0.17430491E+03</pdfrwt>
<pdfrwt beam="2">  1       21 0.10302436E-01 0.17430491E+03</pdfrwt>
<totfact> 0.11991355E+04</totfact>
</mgrwt>
</event>
<event>
 6      1 +2.5168241e+02 1.82115100e+02 7.54677100e-03 1.11671100e-01
       21 -1    0    0  503  502 +0.0000000000e+00 +0.0000000000e+00 +6.0170252117e+02 6.0170252117e+02 0.0000000000e+00 0.0000e+00 1.0000e+00
       21 -1    0    0  501  503 -0.0000000000e+00 -0.0000000000e+00 -1.0313917451e+02 1.0313917451e+02 0.0000000000e+00 0.0000e+00 1.0000e+00
        6  1    1    2  501    0 -4.2713367919e+01 -1.7898699674e+01 +1.4925214482e+02 2.3313086021e+02 1.7300000000e+02 0.0000e+00 1.0000e+00
       -6  1    1    2    0  504 +6.2474096650e+01 +2.3316370259e+01 +1.2781958804e+02 2.2519660957e+02 1.7300000000e+02 0.0000e+00 -1.0000e+00
       21  1    1    2  504  505 +3.6178854583e+01 +2.1626103137e+01 +5.8677861175e+01 7.2247416894e+01 0.0000000000e+00 0.0000e+00 -1.0000e+00
       21  1    1    2  505  502 -5.5939583315e+01 -2.7043773722e+01 +1.6281375262e+02 1.7426680900e+02 0.0000000000e+00 0.0000e+00 1.0000e+00
<mgrwt>
<rscale>  4 0.18211507E+03</rscale>
<asrwt>0</asrwt>
<pdfrwt beam="1">  1       21 0.92569617E-01 0.18211507E+03</pdfrwt>
<pdfrwt beam="2">  1       21 0.15867566E-01 0.18211507E+03</pdfrwt>
<totfact> 0.35038421E+04</totfact>
</mgrwt>
</event>
<event>
 6      1 +2.5168241e+02 2.05271200e+02 7.54677100e-03 1.17132900e-01
       21 -1    0    0  505  502 +0.0000000000e+00 +0.0000000000e+00 +4.4398718461e+02 4.4398718461e+02 0.0000000000e+00 0.0000e+00 -1.0000e+00
       21 -1    0    0  504  503 -0.0000000000e+00 -0.0000000000e+00 -3.1999731489e+02 3.1999731489e+02 0.0000000000e+00 0.0000e+00 1.0000e+00
        6  1    1    2  501    0 -4.9795349207e+01 -1.0313592823e+02 +1.2554881844e+02 2.4250381916e+02 1.7300000000e+02 0.0000e+00 -1.0000e+00
       -6  1    1    2    0  502 +6.5829080547e+01 +8.5769786524e+01 +1.5916587488e+02 2.5875219778e+02 1.7300000000e+02 0.0000e+00 -1.0000e+00
       21  1    1    2  504  501 +2.8741654116e+01 +3.9285422911e+01 -1.9580852605e+02 2.0176819870e+02 0.0000000000e+00 0.0000e+00 1.0000e+00
       21  1    1    2  505  503 -4.4775385455e+01 -2.1919281203e+01 +3.5083702443e+01 6.0960283860e+01 0.0000000000e+00 0.0000e+00 -1.0000e+00
<mgrwt>
<rscale>  4 0.20527123E+03</rscale>
<asrwt>0</asrwt>
<pdfrwt beam="1">  1       21 0.68305721E-01 0.20527123E+03</pdfrwt>
<pdfrwt beam="2">  1       21 0.49230356E-01 0.20527123E+03</pdfrwt>
<totfact> 0.76263335E+03</totfact>
</mgrwt>
</event>
<event>
 6      1 +2.5168241e+02 1.96965600e+02 7.54677100e-03 1.15942100e-01
       21 -1    0    0  504  502 +0.0000000000e+00 +0.0000000000e+00 +3.4179172048e+02 3.4179172048e+02 0.0000000000e+00 0.0000e+00 -1.0000e+00
       21 -1    0    0  501  503 -0.0000000000e+00 -0.0000000000e+00 -4.1563370253e+02 4.1563370253e+02 0.0000000000e+00 0.0000e+00 -1.0000e+00
        6  1    1    2  501    0 -1.2601769106e+02 +7.0820117738e+01 -1.8528245570e+01 2.2620398630e+02 1.7300000000e+02 0.0000e+00 -1.0000e+00
       -6  1    1    2    0  502 +6.9667845913e+01 -3.5613456929e+01 +1.9411485066e+02 2.7153545314e+02 1.7300000000e+02 0.0000e+00 -1.0000e+00
       21  1    1    2  504  505 +1.9198771769e+01 -5.7255473529e+00 -3.7508257928e+01 4.2523454031e+01 0.0000000000e+00 0.0000e+00 -1.0000e+00
       21  1    1    2  505  503 +3.7151073377e+01 -2.9481113455e+01 -2.1192032921e+02 2.1716252954e+02 0.0000000000e+00 0.0000e+00 -1.0000e+00
<mgrwt>
<rscale>  4 0.19696562E+03</rscale>
<asrwt>0</asrwt>
<pdfrwt beam="1">  1       21 0.52583342E-01 0.19696562E+03</pdfrwt>
<pdfrwt beam="2">  1       21 0.63943646E-01 0.19696562E+03</pdfrwt>
<totfact> 0.77206188E+03</totfact>
</mgrwt>
</event>
<event>
 6      1 +2.5168241e+02 2.83568100e+02 7.54677100e-03 1.11671100e-01
       21 -1    0    0  503  502 +0.0000000000e+00 +0.0000000000e+00 +1.2700286994e+03 1.2700286994e+03 0.0000000000e+00 0.0000e+00 1.0000e+00
       21 -1    0    0  501  503 -0.0000000000e+00 -0.0000000000e+00 -5.2593178906e+02 5.2593178906e+02 0.0000000000e+00 0.0000e+00 -1.0000e+00
        6  1    1    2  501    0 -1.8440916225e+02 +7.8374090291e+01 +2.6523521552e+02 3.7473718351e+02 1.7300000000e+02 0.0000e+00 -1.0000e+00
       -6  1    1    2    0  504 +2.1819360702e+02 -6.6722172705e+01 -4.2078672661e+02 5.0897030146e+02 1.7300000000e+02 0.0000e+00 -1.0000e+00
       21  1    1    2  504  505 -4.7969234367e+01 +3.4484674430e+01 +7.9291499669e+02 7.9511284243e+02 0.0000000000e+00 0.0000e+00 1.0000e+00
       21  1    1    2  505  502 +1.4184789603e+01 -4.6136592016e+01 +1.0673342472e+02 1.1714016106e+02 0.0000000000e+00 0.0000e+00 -1.0000e+00
<mgrwt>
<rscale>  4 0.28356810E+03</rscale>
<asrwt>0</asrwt>
<pdfrwt beam="1">  1       21 0.19538903E+00 0.28356810E+03</pdfrwt>
<pdfrwt beam="2">  1       21 0.80912583E-01 0.28356810E+03</pdfrwt>
<totfact> 0.17425293E+02</totfact>
</mgrwt>
</event>
<event>
 6      1 +2.5168241e+02 1.98116600e+02 7.54677100e-03 1.11671100e-01
       21 -1    0    0  503  502 +0.0000000000e+00 +0.0000000000e+00 +1.2492882468e+03 1.2492882468e+03 0.0000000000e+00 0.0000e+00 -1.0000e+00
       21 -1    0    0  501  503 -0.0000000000e+00 -0.0000000000e+00 -2.7874434798e+02 2.7874434798e+02 0.0000000000e+00 0.0000e+00 -1.0000e+00
        6  1    1    2  501    0 -1.1033011698e+02 +6.0014525764e+01 -1.1229219895e+02 2.4148088115e+02 1.7300000000e+02 0.0000e+00 -1.0000e+00
       -6  1    1    2    0  504 -2.9022958160e+01 -1.0514356426e+02 +1.3284363273e+01 2.0494627470e+02 1.7300000000e+02 0.0000e+00 1.0000e+00
       21  1    1    2  504  505 +1.1630754868e+02 +6.2504386543e+01 +8.9356106921e+02 9.0326387541e+02 0.0000000000e+00 0.0000e+00 -1.0000e+00
       21  1    1    2  505  502 +2.3045526463e+01 -1.7375348045e+01 +1.7599066531e+02 1.7834156354e+02 0.0000000000e+00 0.0000e+00 -1.0000e+00
<mgrwt>
<rscale>  4 0.19811659E+03</rscale>
<asrwt>0</asrwt>
<pdfrwt beam="1">  1       21 0.19219819E+00 0.19811659E+03</pdfrwt>
<pdfrwt beam="2">  1       21 0.42883747E-01 0.19811659E+03</pdfrwt>
<totfact> 0.78411025E+02</totfact>
</mgrwt>
</event>
<event>
 6      1 +2.5168241e+02 1.76276700e+02 7.54677100e-03 1.05831300e-01
       21 -1    0    0  504  502 +0.0000000000e+00 +0.0000000000e+00 +8.5234168356e+02 8.5234168356e+02 0.0000000000e+00 0.0000e+00 -1.0000e+00
       21 -1    0    0  501  503 -0.0000000000e+00 -0.0000000000e+00 -8.8938666215e+01 8.8938666215e+01 0.0000000000e+00 0.0000e+00 -1.0000e+00
        6  1    1    2  501    0 +3.8024446634e+01 +1.9309822134e+01 +6.1638028810e+01 1.8853905263e+02 1.7300000000e+02 0.0000e+00 1.0000e+00
       -6  1    1    2    0  505 -1.4444013370e+01 +3.1232239865e+01 +4.2497231540e+02 4.6012449532e+02 1.7300000000e+02 0.0000e+00 1.0000e+00
       21  1    1    2  504  503 -4.9802689293e+01 -3.2140855746e+01 +1.3828625874e+02 1.5045408544e+02 0.0000000000e+00 0.0000e+00 1.0000e+00
       21  1    1    2  505  502 +2.6222256029e+01 -1.8401206253e+01 +1.3850641439e+02 1.4216271638e+02 0.0000000000e+00 0.0000e+00 -1.0000e+00
<mgrwt>
<rscale>  4 0.17627667E+03</rscale>
<asrwt>0</asrwt>
<pdfrwt beam="1">  1       21 0.13112948E+00 0.17627667E+03</pdfrwt>
<pdfrwt beam="2">  1       21 0.13682872E-01 0.17627667E+03</pdfrwt>
<totfact> 0.19812601E+04</totfact>
</mgrwt>
</event>
<event>
 6      1 +2.5168241e+02 3.39028100e+02 7.54677100e-03 1.11471900e-01
       21 -1    0    0  503  502 +0.0000000000e+00 +0.0000000000e+00 +1.0484263847e+03 1.0484263847e+03 0.0000000000e+00 0.0000e+00 -1.0000e+00
       21 -1    0    0  501  503 -0.0000000000e+00 -0.0000000000e+00 -2.6357370947e+02 2.6357370947e+02 0.0000000000e+00 0.0000e+00 -1.0000e+00
        6  1    1    2  501    0 -2.5783719344e+02 -9.0834592609e+01 +1.8174601241e+02 3.7106812658e+02 1.7300000000e+02 0.0000e+00 1.0000e+00
       -6  1    1    2    0  504 -4.1404098622e+01 +6.9108691925e+01 -4.5465679957e+01 1.9617960836e+02 1.7300000000e+02 0.0000e+00 -1.0000e+00
       21  1    1    2  504  505 -3.1093269080e+00 +2.4501834964e+01 -4.4778226215e+00 2.5100970616e+01 0.0000000000e+00 0.0000e+00 1.0000e+00
       21  1    1    2  505  502 +3.0235061897e+02 -2.7759342807e+00 +6.5305016535e+02 7.1965138857e+02 0.0000000000e+00 0.0000e+00 -1.0000e+00
<mgrwt>
<rscale>  4 0.29554479E+03</rscale>
<asrwt>0</asrwt>
<pdfrwt beam="1">  1       21 0.16129636E+00 0.33902813E+03</pdfrwt>
<pdfrwt beam="2">  1       21 0.40549802E-01 0.33902813E+03</pdfrwt>
<totfact> 0.12893610E+03</totfact>
</mgrwt>
</event>
<event>
 6      1 +2.5168241e+02 2.03717600e+02 7.54677100e-03 9.87464100e-02
       21 -1    0    0  503  502 +0.0000000000e+00 +0.0000000000e+00 +1.9996832257e+02 1.9996832257e+02 0.0000000000e+00 0.0000e+00 -1.0000e+00
       21 -1    0    0  505  503 -0.0000000000e+00 -0.0000000000e+00 -1.8000606633e+03 1.8000606633e+03 0.0000000000e+00 0.0000e+00 1.0000e+00
        6  1    1    2  501    0 +4.7997058550e+01 +1.8413359802e+02 -1.5293199431e+02 2.9920911489e+02 1.7300000000e+02 0.0000e+00 -1.0000e+00
       -6  1    1    2    0  504 -6.4484072410e+00 -6.9032115589e+01 +4.5713744614e+01 1.9190039444e+02 1.7300000000e+02 0.0000e+00 -1.0000e+00
       21  1    1    2  504  502 -2.5866589753e+01 -3.7640734164e+00 -2.3197232088e+01 3.4947965473e+01 0.0000000000e+00 0.0000e+00 1.0000e+00
       21  1    1    2  505  501 -1.5682061555e+01 -1.1133740902e+02 -1.4696768590e+03 1.4739715111e+03 0.0000000000e+00 0.0000e+00 1.0000e+00
<mgrwt>
<rscale>  4 0.20371764E+03</rscale>
<asrwt>0</asrwt>
<pdfrwt beam="1">  1       21 0.30764359E-01 0.20371764E+03</pdfrwt>
<pdfrwt beam="2">  1       21 0.27693240E+00 0.20371764E+03</pdfrwt>
<totfact> 0.46324013E+02</totfact>
</mgrwt>
</event>
<event>
 6      1 +2.5168241e+02 2.59155000e+02 7.54677100e-03 1.11471900e-01
       21 -1    0    0  503  502 +0.0000000000e+00 +0.0000000000e+00 +1.9561752539e+03 1.9561752539e+03 0.0000000000e+00 0.0000e+00 -1.0000e+00
       21 -1    0    0  501  503 -0.0000000000e+00 -0.0000000000e+00 -3.7307106014e+02 3.7307106014e+02 0.0000000000e+00 0.0000e+00 1.0000e+00
        6  1    1    2  501    0 +8.8184301008e+01 +1.7992903567e+02 +2.7894276089e+02 3.8456337927e+02 1.7300000000e+02 0.0000e+00 -1.0000e+00
       -6  1    1    2    0  504 -1.1722030271e+02 -1.0781363203e+02 -2.3353595006e+02 3.3140974426e+02 1.7300000000e+02 0.0000e+00 1.0000e+00
       21  1    1    2  504  505 -4.1780011330e+00 -5.1934059635e+01 -1.9469995599e+01 5.5620886115e+01 0.0000000000e+00 0.0000e+00 -1.0000e+00
       21  1    1    2  505  502 +3.3214002833e+01 -2.0181344001e+01 +1.5571673785e+03 1.5576523044e+03 0.0000000000e+00 0.0000e+00 -1.0000e+00
<mgrwt>
<rscale>  4 0.25915495E+03</rscale>
<asrwt>0</asrwt>
<pdfrwt beam="1">  1       21 0.30095003E+00 0.25915495E+03</pdfrwt>
<pdfrwt beam="2">  1       21 0.57395549E-01 0.25915495E+03</pdfrwt>
<totfact> 0.87363125E+01</totfact>
</mgrwt>
</event>
<event>
 6      1 +2.5168241e+02 3.05424000e+02 7.54677100e-03 1.07240600e-01
       21 -1    0    0  505  502 +0.0000000000e+00 +0.0000000000e+00 +7.7714369568e+02 7.7714369568e+02 0.0000000000e+00 0.0000e+00 1.0000e+00
       21 -1    0    0  504  503 -0.0000000000e+00 -0.0000000000e+00 -4.6756289831e+02 4.6756289831e+02 0.0000000000e+00 0.0000e+00 1.0000e+00
        6  1    1    2  501    0 -2.5093075439e+02 -5.7849838124e+01 +3.1450123258e+02 4.4176110350e+02 1.7300000000e+02 0.0000e+00 1.0000e+00
       -6  1    1    2    0  502 +2.3214045388e+02 +8.1277176241e+01 +2.4304902160e+02 3.8664841472e+02 1.7300000000e+02 0.0000e+00 1.0000e+00
       21  1    1    2  504  501 -4.0093500233e+01 -6.8152720892e+01 +6.0200555375e+01 9.9380023110e+01 0.0000000000e+00 0.0000e+00 1.0000e+00
       21  1    1    2  505  503 +5.8883800746e+01 +4.4725382775e+01 -3.0817001218e+02 3.1691705266e+02 0.0000000000e+00 0.0000e+00 1.0000e+00
<mgrwt>
<rscale>  4 0.30542401E+03</rscale>
<asrwt>0</asrwt>
<pdfrwt beam="1">  1       21 0.11956057E+00 0.30542401E+03</pdfrwt>
<pdfrwt beam="2">  1       21 0.71932754E-01 0.30542401E+03</pdfrwt>
<totfact> 0.84722161E+02</totfact>
</mgrwt>
</event>
<event>
 6      1 +2.5168241e+02 2.23650600e+02 7.54677100e-03 1.17132900e-01
       21 -1    0    0  503  502 +0.0000000000e+00 +0.0000000000e+00 +8.7821301712e+02 8.7821301712e+02 0.0000000000e+00 0.0000e+00 -1.0000e+00
       21 -1    0    0  504  503 -0.0000000000e+00 -0.0000000000e+00 -9.3753776308e+02 9.3753776308e+02 0.0000000000e+00 0.0000e+00 -1.0000e+00
        6  1    1    2  501    0 +5.1340726843e+01 -1.5454921113e+02 -6.9725817066e+02 7.3662696492e+02 1.7300000000e+02 0.0000e+00 -1.0000e+00
       -6  1    1    2    0  505 -6.9617863567e+00 +1.5300933140e+02 +2.6643194671e+02 3.5266883076e+02 1.7300000000e+02 0.0000e+00 -1.0000e+00
       21  1    1    2  504  501 +2.2712284921e+01 +3.4599354713e+01 -1.7246956776e+02 1.7736604815e+02 0.0000000000e+00 0.0000e+00 -1.0000e+00
       21  1    1    2  505  502 -6.7091225406e+01 -3.3059474988e+01 +5.4397104576e+02 5.4908893636e+02 0.0000000000e+00 0.0000e+00 -1.0000e+00
<mgrwt>
<rscale>  4 0.22365064E+03</rscale>
<asrwt>0</asrwt>
<pdfrwt beam="1">  1       21 0.13510970E+00 0.22365064E+03</pdfrwt>
<pdfrwt beam="2">  1       21 0.14423658E+00 0.22365064E+03</pdfrwt>
<totfact> 0.12479991E+02</totfact>
</mgrwt>
</event>
<event>
 6      1 +2.5168241e+02 1.87440000e+02 7.54677100e-03 1.17392200e-01
       21 -1    0    0  504  502 +0.0000000000e+00 +0.0000000000e+00 +1.5031466832e+03 1.5031466832e+03 0.0000000000e+00 0.0000e+00 1.0000e+00
       21 -1    0    0  501  503 -0.0000000000e+00 -0.0000000000e+00 -6.9830512790e+01 6.9830512790e+01 0.0000000000e+00 0.0000e+00 1.0000e+00
        6  1    1    2  501    0 +1.3828447578e+02 +4.7736142602e+00 +6.5598945186e+02 6.9238467963e+02 1.7300000000e+02 0.0000e+00 1.0000e+00
       -6  1    1    2    0  502 +2.5403790684e+01 +7.7603818197e+01 +3.9312321553e+02 4.3719854502e+02 1.7300000000e+02 0.0000e+00 1.0000e+00
       21  1    1    2  504  505 -1.4910905859e+02 -2.2207086904e+01 +2.0994302709e+02 2.5846226163e+02 0.0000000000e+00 0.0000e+00 1.0000e+00
       21  1    1    2  505  503 -1.4579207874e+01 -6.0170345553e+01 +1.7426047593e+02 1.8493170971e+02 0.0000000000e+00 0.0000e+00 1.0000e+00
<mgrwt>
<rscale>  4 0.18743999E+03</rscale>
<asrwt>0</asrwt>
<pdfrwt beam="1">  1       21 0.23125331E+00 0.18743999E+03</pdfrwt>
<pdfrwt beam="2">  1       21 0.10743157E-01 0.18743999E+03</pdfrwt>
<totfact> 0.61740880E+03</totfact>
</mgrwt>
</event>
<event>
 6      1 +2.5168241e+02 1.75710000e+02 7.54677100e-03 1.16820100e-01
       21 -1    0    0  501  502 +0.0000000000e+00 +0.0000000000e+00 +5.3879393620e+02 5.3879393620e+02 0.0000000000e+00 0.0000e+00 -1.0000e+00
       21 -1    0    0  504  503 -0.0000000000e+00 -0.0000000000e+00 -1.1546096075e+03 1.1546096075e+03 0.0000000000e+00 0.0000e+00 1.0000e+00
        6  1    1    2  501    0 +2.9266205373e+01 +5.9542792466e+01 +2.6080912774e+02 3.1992539134e+02 1.7300000000e+02 0.0000e+00 -1.0000e+00
       -6  1    1    2    0  503 +2.3138750642e+00 -4.7198907953e+01 -4.3138329256e+01 1.8445326340e+02 1.7300000000e+02 0.0000e+00 -1.0000e+00
       21  1    1    2  504  505 -3.3307597449e+00 +3.2651925825e+01 -1.0070127974e+03 1.0075475256e+03 0.0000000000e+00 0.0000e+00 1.0000e+00
       21  1    1    2  505  502 -2.8249320693e+01 -4.4995810338e+01 +1.7352632757e+02 1.8147736340e+02 0.0000000000e+00 0.0000e+00 -1.0000e+00
<mgrwt>
<rscale>  4 0.17571004E+03</rscale>
<asrwt>0</asrwt>
<pdfrwt beam="1">  1       21 0.82891375E-01 0.17571004E+03</pdfrwt>
<pdfrwt beam="2">  1       21 0.17763225E+00 0.17571004E+03</pdfrwt>
<totfact> 0.24516443E+02</totfact>
</mgrwt>
</event>
<event>
 6      1 +2.5168241e+02 2.77369900e+02 7.54677100e-03 1.09842800e-01
       21 -1    0    0  503  502 +0.0000000000e+00 +0.0000000000e+00 +7.2112531330e+02 7.2112531330e+02 0.0000000000e+00 0.0000e+00 -1.0000e+00
       21 -1    0    0  504  503 -0.0000000000e+00 -0.0000000000e+00 -5.0631189634e+02 5.0631189634e+02 0.0000000000e+00 0.0000e+00 1.0000e+00
        6  1    1    2  501    0 -1.4412354536e+02 +2.2326723750e+02 -6.9995691756e+01 3.2472796697e+02 1.7300000000e+02 0.0000e+00 1.0000e+00
       -6  1    1    2    0  505 +6.6335603820e+01 -1.9412530556e+02 -1.9678453408e+02 3.3277349571e+02 1.7300000000e+02 0.0000e+00 -1.0000e+00
       21  1    1    2  504  501 -2.0320110212e+01 +2.0188011595e+01 -3.3033739922e+01 4.3722884905e+01 0.0000000000e+00 0.0000e+00 1.0000e+00
       21  1    1    2  505  502 +9.8108051750e+01 -4.9329943534e+01 +5.1462738272e+02 5.2621286205e+02 0.0000000000e+00 0.0000e+00 -1.0000e+00
<mgrwt>
<rscale>  4 0.27736994E+03</rscale>
<asrwt>0</asrwt>
<pdfrwt beam="1">  1       21 0.11094236E+00 0.27736994E+03</pdfrwt>
<pdfrwt beam="2">  1       21 0.77894138E-01 0.27736994E+03</pdfrwt>
<totfact> 0.86823226E+02</totfact>
</mgrwt>
</event>
<event>
 6      1 +2.5168241e+02 2.07724900e+02 7.54677100e-03 1.15942100e-01
       21 -1    0    0  504  502 +0.0000000000e+00 +0.0000000000e+00 +7.6886846790e+02 7.6886846790e+02 0.0000000000e+00 0.0000e+00 -1.0000e+00
       21 -1    0    0  501  503 -0.0000000000e+00 -0.0000000000e+00 -4.2785735470e+02 4.2785735470e+02 0.0000000000e+00 0.0000e+00 -1.0000e+00
        6  1    1    2  501    0 -4.6653606173e+01 +1.1052034946e+02 +2.2881661937e+02 3.1092981831e+02 1.7300000000e+02 0.0000e+00 1.0000e+00
       -6  1    1    2    0  502 -2.5339905647e+00 -1.1593347863e+02 +4.6624692910e+02 5.1064879464e+02 1.7300000000e+02 0.0000e+00 -1.0000e+00
       21  1    1    2  504  505 +1.9010160147e+01 +5.7702754021e+01 -2.1787500875e+02 2.2618689937e+02 0.0000000000e+00 0.0000e+00 -1.0000e+00
       21  1    1    2  505  503 +3.0177436590e+01 -5.2289624850e+01 -1.3617742652e+02 1.4896031028e+02 0.0000000000e+00 0.0000e+00 1.0000e+00
<mgrwt>
<rscale>  4 0.20772487E+03</rscale>
<asrwt>0</asrwt>
<pdfrwt beam="1">  1       21 0.11828746E+00 0.20772487E+03</pdfrwt>
<pdfrwt beam="2">  1       21 0.65824209E-01 0.20772487E+03</pdfrwt>
<totfact> 0.11433720E+03</totfact>
</mgrwt>
</event>
<event>
 6      1 +2.5168241e+02 3.69101900e+02 7.54677100e-03 1.17392200e-01
       21 -1    0    0  504  502 +0.0000000000e+00 +0.0000000000e+00 +8.4049898996e+02 8.4049898996e+02 0.0000000000e+00 0.0000e+00 -1.0000e+00
       21 -1    0    0  501  503 -0.0000000000e+00 -0.0000000000e+00 -4.4534960451e+02 4.4534960451e+02 0.0000000000e+00 0.0000e+00 -1.0000e+00
        6  1    1    2  501    0 +8.0179112488e+01 -1.4753996949e+02 +4.8233891714e+02 5.3923701993e+02 1.7300000000e+02 0.0000e+00 1.0000e+00
       -6  1    1    2    0  502 +1.1675239904e+02 -1.9491647789e+02 +8.9202269855e+01 2.9918155188e+02 1.7300000000e+02 0.0000e+00 1.0000e+00
       21  1    1    2  504  505 +5.4083419566e+00 +6.9915209234e+01 -4.5686950598e+01 8.3693990823e+01 0.0000000000e+00 0.0000e+00 -1.0000e+00
       21  1    1    2  505  503 -2.0233985348e+02 +2.7254123815e+02 -1.3070485094e+02 3.6373603184e+02 0.0000000000e+00 0.0000e+00 -1.0000e+00
<mgrwt>
<rscale>  4 0.33182248E+03</rscale>
<asrwt>0</asrwt>
<pdfrwt beam="1">  1       21 0.12930754E+00 0.36910195E+03</pdfrwt>
<pdfrwt beam="2">  1       21 0.68515324E-01 0.36910195E+03</pdfrwt>
<totfact> 0.74516545E+02</totfact>
</mgrwt>
</event>
<event>
 6      1 +2.5168241e+02 1.82833800e+02 7.54677100e-03 1.17132900e-01
       21 -1    0    0  503  502 +0.0000000000e+00 +0.0000000000e+00 +1.9805436281e+03 1.9805436281e+03 0.0000000000e+00 0.0000e+00 1.0000e+00
       21 -1    0    0  504  503 -0.0000000000e+00 -0.0000000000e+00 -1.8598156424e+02 1.8598156424e+02 0.0000000000e+00 0.0000e+00 -1.0000e+00
        6  1    1    2  501    0 -3.0139865345e+01 +9.4468277173e+00 +8.2666255572e+02 8.4516130713e+02 1.7300000000e+02 0.0000e+00 1.0000e+00
       -6  1    1    2    0  505 +8.8430217276e+01 -3.3788468253e+01 +9.0382845496e+02 9.2509266558e+02 1.7300000000e+02 0.0000e+00 1.0000e+00
       21  1    1    2  504  501 -7.8101382357e+01 +4.2971540671e+01 -1.5323098904e+02 1.7727412455e+02 0.0000000000e+00 0.0000e+00 -1.0000e+00
       21  1    1    2  505  502 +1.9811030427e+01 -1.8629900135e+01 +2.1730204226e+02 2.1899709513e+02 0.0000000000e+00 0.0000e+00 1.0000e+00
<mgrwt>
<rscale>  4 0.18283378E+03</rscale>
<asrwt>0</asrwt>
<pdfrwt beam="1">  1       21 0.30469901E+00 0.18283378E+03</pdfrwt>
<pdfrwt beam="2">  1       21 0.28612550E-01 0.18283378E+03</pdfrwt>
<totfact> 0.38043297E+02</totfact>
</mgrwt>
</event>
<event>
 6      1 +2.5168241e+02 1.90998300e+02 7.54677100e-03 1.17132900e-01
       21 -1    0    0  505  502 +0.0000000000e+00 +0.0000000000e+00 +4.4375642928e+02 4.4375642928e+02 0.0000000000e+00 0.0000e+00 1.0000e+00
       21 -1    0    0  504  503 -0.0000000000e+00 -0.0000000000e+00 -2.4616095582e+02 2.4616095582e+02 0.0000000000e+00 0.0000e+00 1.0000e+00
        6  1    1    2  501    0 -7.8913088252e+01 +3.7572222249e+01 +2.6985172977e+02 3.3224675084e+02 1.7300000000e+02 0.0000e+00 1.0000e+00
       -6  1    1    2    0  502 +7.6834573025e+01 +3.0291974587e+01 +1.0735259924e+01 1.9200364877e+02 1.7300000000e+02 0.0000e+00 1.0000e+00
       21  1    1    2  504  501 -5.6949454786e+00 -1.9445964160e+01 -1.0851048796e+02 1.1038615821e+02 0.0000000000e+00 0.0000e+00 1.0000e+00
       21  1    1    2  505  503 +7.7734607048e+00 -4.8418232676e+01 +2.5518971719e+01 5.5280827277e+01 0.0000000000e+00 0.0000e+00 1.0000e+00
<mgrwt>
<rscale>  4 0.19099833E+03</rscale>
<asrwt>0</asrwt>
<pdfrwt beam="1">  1       21 0.68270220E-01 0.19099833E+03</pdfrwt>
<pdfrwt beam="2">  1       21 0.37870916E-01 0.19099833E+03</pdfrwt>
<totfact> 0.13179301E+04</totfact>
</mgrwt>
</event>
<event>
 6      1 +2.5168241e+02 2.97716100e+02 7.54677100e-03 1.11910500e-01
       21 -1    0    0  501  502 +0.0000000000e+00 +0.0000000000e+00 +5.8766223207e+02 5.8766223207e+02 0.0000000000e+00 0.0000e+00 1.0000e+00
       21 -1    0    0  505  503 -0.0000000000e+00 -0.0000000000e+00 -2.4747710601e+02 2.4747710601e+02 0.0000000000e+00 0.0000e+00 -1.0000e+00
        6  1    1    2  501    0 -2.2878856446e+02 -6.7588526980e+01 +1.8403691767e+02 3.4743489070e+02 1.7300000000e+02 0.0000e+00 1.0000e+00
       -6  1    1    2    0  504 +2.2580353990e+02 +9.9051774864e+01 +2.3383831525e+02 3.8132381307e+02 1.7300000000e+02 0.0000e+00 1.0000e+00
       21  1    1    2  504  503 +2.0608866061e+00 +2.0004742142e+01 -3.0586308553e+01 3.6605453592e+01 0.0000000000e+00 0.0000e+00 1.0000e+00
       21  1    1    2  505  502 +9.2413795760e-01 -5.1467990025e+01 -4.7103798311e+01 6.9775180713e+01 0.0000000000e+00 0.0000e+00 -1.0000e+00
<mgrwt>
<rscale>  4 0.29771606E+03</rscale>
<asrwt>0</asrwt>
<pdfrwt beam="1">  1       21 0.90409573E-01 0.29771606E+03</pdfrwt>
<pdfrwt beam="2">  1       21 0.38073401E-01 0.29771606E+03</pdfrwt>
<totfact> 0.64828773E+03</totfact>
</mgrwt>
</event>
<event>
 6      1 +2.5168241e+02 2.94423200e+02 7.54677100e-03 1.04003000e-01
       21 -1    0    0  504  502 +0.0000000000e+00 +0.0000000000e+00 +8.4634418051e+02 8.4634418051e+02 0.0000000000e+00 0.0000e+00 1.0000e+00
       21 -1    0    0  502  503 -0.0000000000e+00 -0.0000000000e+00 -3.2391382011e+02 3.2391382011e+02 0.0000000000e+00 0.0000e+00 -1.0000e+00
        6  1    1    2  501    0 -6.4700601015e+01 -2.8503835749e+02 +4.1938353811e+02 5.3967081175e+02 1.7300000000e+02 0.0000e+00 1.0000e+00
       -6  1    1    2    0  505 +1.4466997253e+02 +1.4420681382e+02 +2.4651620885e+02 3.6390142530e+02 1.7300000000e+02 0.0000e+00 -1.0000e+00
       21  1    1    2  504  501 -2.2941929019e+01 -1.2685697840e+01 -9.1026980783e+01 9.4726819155e+01 0.0000000000e+00 0.0000e+00 -1.0000e+00
       21  1    1    2  505  503 -5.7027442498e+01 +1.5351724152e+02 -5.2442405782e+01 1.7195894442e+02 0.0000000000e+00 0.0000e+00 -1.0000e+00
<mgrwt>
<rscale>  4 0.29442316E+03</rscale>
<asrwt>0</asrwt>
<pdfrwt beam="1">  1       21 0.13020680E+00 0.29442316E+03</pdfrwt>
<pdfrwt beam="2">  1       21 0.49832896E-01 0.29442316E+03</pdfrwt>
<totfact> 0.15244986E+03</totfact>
</mgrwt>
</event>
<event>
 6      1 +2.5168241e+02 1.79087500e+02 7.54677100e-03 1.11910500e-01
       21 -1    0    0  501  502 +0.0000000000e+00 +0.0000000000e+00 +1.4984133346e+03 1.4984133346e+03 0.0000000000e+00 0.0000e+00 -1.0000e+00
       21 -1    0    0  504  503 -0.0000000000e+00 -0.0000000000e+00 -1.6307296597e+02 1.6307296597e+02 0.0000000000e+00 0.0000e+00 -1.0000e+00
        6  1    1    2  501    0 +5.6901095353e+00 +3.7535510654e+01 +4.5672513298e+02 4.8986542948e+02 1.7300000000e+02 0.0000e+00 -1.0000e+00
       -6  1    1    2    0  503 -2.6372162945e+00 -5.0320632511e+01 +1.0050577790e+03 1.0210823964e+03 1.7300000000e+02 0.0000e+00 -1.0000e+00
       21  1    1    2  504  505 -2.1874973210e+01 -1.9555831475e+01 -1.4943679651e+01 3.2928081620e+01 0.0000000000e+00 0.0000e+00 1.0000e+00
       21  1    1    2  505  502 +1.8822079970e+01 +3.2340953331e+01 -1.1149886372e+02 1.1761039311e+02 0.0000000000e+00 0.0000e+00 -1.0000e+00
<mgrwt>
<rscale>  4 0.17908752E+03</rscale>
<asrwt>0</asrwt>
<pdfrwt beam="1">  1       21 0.23052512E+00 0.17908752E+03</pdfrwt>
<pdfrwt beam="2">  1       21 0.25088150E-01 0.17908752E+03</pdfrwt>
<totfact> 0.13275897E+03</totfact>
</mgrwt>
</event>
<event>
 6      1 +2.5168241e+02 1.94918000e+02 7.54677100e-03 1.03924000e-01
       21 -1    0    0  504  502 +0.0000000000e+00 +0.0000000000e+00 +1.5881236530e+03 1.5881236530e+03 0.0000000000e+00 0.0000e+00 -1.0000e+00
       21 -1    0    0  501  503 -0.0000000000e+00 -0.0000000000e+00 -1.0379259443e+03 1.0379259443e+03 0.0000000000e+00 0.0000e+00 1.0000e+00
        6  1    1    2  501    0 +1.1485804146e+02 -1.3161394425e+01 -8.5147316410e+02 8.7652788955e+02 1.7300000000e+02 0.0000e+00 1.0000e+00
       -6  1    1    2    0  505 -3.4629333860e-01 -1.7510842496e+01 -1.2678965212e+02 2.1520075606e+02 1.7300000000e+02 0.0000e+00 -1.0000e+00
       21  1    1    2  504  503 -9.1179288882e+01 -1.2726345052e+00 +1.2061028041e+03 1.2095450617e+03 0.0000000000e+00 0.0000e+00 -1.0000e+00
       21  1    1    2  505  502 -2.3332459238e+01 +3.1944871426e+01 +3.2235772092e+02 3.2477588997e+02 0.0000000000e+00 0.0000e+00 -1.0000e+00
<mgrwt>
<rscale>  4 0.19491799E+03</rscale>
<asrwt>0</asrwt>
<pdfrwt beam="1">  1       21 0.24432672E+00 0.19491799E+03</pdfrwt>
<pdfrwt beam="2">  1       21 0.15968091E+00 0.19491799E+03</pdfrwt>
<totfact> 0.18099576E+01</totfact>
</mgrwt>
</event>
<event>
 6      1 +2.5168241e+02 1.83856700e+02 7.54677100e-03 1.17132900e-01
       21 -1    0    0  503  502 +0.0000000000e+00 +0.0000000000e+00 +3.3049892032e+02 3.3049892032e+02 0.0000000000e+00 0.0000e+00 1.0000e+00
       21 -1    0    0  504  503 -0.0000000000e+00 -0.0000000000e+00 -1.6546070181e+02 1.6546070181e+02 0.0000000000e+00 0.0000e+00 1.0000e+00
        6  1    1    2  501    0 -5.4764074259e+01 +4.9435109813e+01 +1.6771432763e+02 2.5199212211e+02 1.7300000000e+02 0.0000e+00 1.0000e+00
       -6  1    1    2    0  505 +3.2838928768e+01 -4.1195351104e+01 -1.0484957957e+00 1.8084676259e+02 1.7300000000e+02 0.0000e+00 1.0000e+00
       21  1    1    2  504  501 -8.0839691035e+00 -1.8384179340e+01 -1.8434459616e+01 2.7260922725e+01 0.0000000000e+00 0.0000e+00 1.0000e+00
       21  1    1    2  505  502 +3.0009114595e+01 +1.0144420631e+01 +1.6806846298e+01 3.5859814712e+01 0.0000000000e+00 0.0000e+00 1.0000e+00
<mgrwt>
<rscale>  4 0.18385672E+03</rscale>
<asrwt>0</asrwt>
<pdfrwt beam="1">  1       21 0.50845988E-01 0.18385672E+03</pdfrwt>
<pdfrwt beam="2">  1       21 0.25455493E-01 0.18385672E+03</pdfrwt>
<totfact> 0.54056439E+04</totfact>
</mgrwt>
</event>
<event>
 6      1 +2.5168241e+02 2.05370100e+02 7.54677100e-03 1.12068800e-01
       21 -1    0    0  504  502 +0.0000000000e+00 +0.0000000000e+00 +1.2636472636e+03 1.2636472636e+03 0.0000000000e+00 0.0000e+00 1.0000e+00
       21 -1    0    0  502  503 -0.0000000000e+00 -0.0000000000e+00 -4.5142643327e+02 4.5142643327e+02 0.0000000000e+00 0.0000e+00 -1.0000e+00
        6  1    1    2  501    0 -2.5677361576e+01 -9.2340023756e+01 +3.4869591898e+02 4.0087884803e+02 1.7300000000e+02 0.0000e+00 1.0000e+00
       -6  1    1    2    0  505 -2.8926947718e+01 +1.1889291522e+02 +8.6074604172e+02 8.8644517142e+02 1.7300000000e+02 0.0000e+00 -1.0000e+00
       21  1    1    2  504  501 +5.5817014216e+01 -5.5436128080e+01 -9.1516753565e+01 1.2068147975e+02 0.0000000000e+00 0.0000e+00 1.0000e+00
       21  1    1    2  505  503 -1.2127049225e+00 +2.8883236612e+01 -3.0570437681e+02 3.0706819766e+02 0.0000000000e+00 0.0000e+00 -1.0000e+00
<mgrwt>
<rscale>  4 0.20537008E+03</rscale>
<asrwt>0</asrwt>
<pdfrwt beam="1">  1       21 0.19440727E+00 0.20537008E+03</pdfrwt>
<pdfrwt beam="2">  1       21 0.69450221E-01 0.20537008E+03</pdfrwt>
<totfact> 0.27076294E+02</totfact>
</mgrwt>
</event>
<event>
 6      1 +2.5168241e+02 2.32834600e+02 7.54677100e-03 1.12068800e-01
       21 -1    0    0  504  502 +0.0000000000e+00 +0.0000000000e+00 +1.2434438915e+03 1.2434438915e+03 0.0000000000e+00 0.0000e+00 -1.0000e+00
       21 -1    0    0  502  503 -0.0000000000e+00 -0.0000000000e+00 -1.2203549018e+02 1.2203549018e+02 0.0000000000e+00 0.0000e+00 1.0000e+00
        6  1    1    2  501    0 +1.2831050745e+00 +1.4125557385e+02 +7.0819517657e+02 7.4257941772e+02 1.7300000000e+02 0.0000e+00 -1.0000e+00
       -6  1    1    2    0  505 -1.2376182891e+02 -1.9264865068e+02 +2.9846381198e+02 4.1405330570e+02 1.7300000000e+02 0.0000e+00 1.0000e+00
       21  1    1    2  504  501 +7.7204340418e+01 +6.1929530699e+01 +1.2677282933e+02 1.6083260617e+02 0.0000000000e+00 0.0000e+00 -1.0000e+00
       21  1    1    2  505  503 +4.5274383415e+01 -1.0536453870e+01 -1.2023416539e+01 4.8014052100e+01 0.0000000000e+00 0.0000e+00 -1.0000e+00
<mgrwt>
<rscale>  4 0.23283464E+03</rscale>
<asrwt>0</asrwt>
<pdfrwt beam="1">  1       21 0.19129905E+00 0.23283464E+03</pdfrwt>
<pdfrwt beam="2">  1       21 0.18774692E-01 0.23283464E+03</pdfrwt>
<totfact> 0.38333809E+03</totfact>
</mgrwt>
</event>
<event>
 6      1 +2.5168241e+02 1.90573900e+02 7.54677100e-03 1.07064900e-01
       21 -1    0    0  501  502 +0.0000000000e+00 +0.0000000000e+00 +1.6280707419e+03 1.6280707419e+03 0.0000000000e+00 0.0000e+00 1.0000e+00
       21 -1    0    0  504  503 -0.0000000000e+00 -0.0000000000e+00 -1.9006704865e+02 1.9006704865e+02 0.0000000000e+00 0.0000e+00 1.0000e+00
        6  1    1    2  501    0 +6.0233900886e+01 -1.3621268723e+02 +8.8862547784e+01 2.4496442880e+02 1.7300000000e+02 0.0000e+00 -1.0000e+00
       -6  1    1    2    0  503 +7.9064233235e+01 +4.0573936504e+01 -1.7209633406e+01 1.9525001609e+02 1.7300000000e+02 0.0000e+00 1.0000e+00
       21  1    1    2  504  505 -1.3567822560e+02 +7.1970737523e+01 +1.2195349374e+03 1.2291679428e+03 0.0000000000e+00 0.0000e+00 1.0000e+00
       21  1    1    2  505  502 -3.6199085213e+00 +2.3668013202e+01 +1.4681584146e+02 1.4875540290e+02 0.0000000000e+00 0.0000e+00 1.0000e+00
<mgrwt>
<rscale>  4 0.19057392E+03</rscale>
<asrwt>0</asrwt>
<pdfrwt beam="1">  1       21 0.25047241E+00 0.19057392E+03</pdfrwt>
<pdfrwt beam="2">  1       21 0.29241086E-01 0.19057392E+03</pdfrwt>
<totfact> 0.74203992E+02</totfact>
</mgrwt>
</event>
<event>
 6      1 +2.5168241e+02 2.47423900e+02 7.54677100e-03 1.16820100e-01
       21 -1    0    0  504  502 +0.0000000000e+00 +0.0000000000e+00 +1.2633113503e+02 1.2633113503e+02 0.0000000000e+00 0.0000e+00 1.0000e+00
       21 -1    0    0  501  503 -0.0000000000e+00 -0.0000000000e+00 -9.2083269526e+02 9.2083269526e+02 0.0000000000e+00 0.0000e+00 -1.0000e+00
        6  1    1    2  501    0 -6.6531249569e+01 -1.5609020517e+02 -2.5794101723e+02 3.5391118616e+02 1.7300000000e+02 0.0000e+00 -1.0000e+00
       -6  1    1    2    0  505 +6.6994548982e+01 +1.7908827418e+02 -2.6258898288e+02 3.6802561524e+02 1.7300000000e+02 0.0000e+00 1.0000e+00
       21  1    1    2  504  503 -5.9556138116e+01 -5.8381102732e+01 -2.2706290632e+02 2.4189429544e+02 0.0000000000e+00 0.0000e+00 -1.0000e+00
       21  1    1    2  505  502 +5.9092838704e+01 +3.5383033727e+01 -4.6908653798e+01 8.3332733442e+01 0.0000000000e+00 0.0000e+00 -1.0000e+00
<mgrwt>
<rscale>  4 0.24742389E+03</rscale>
<asrwt>0</asrwt>
<pdfrwt beam="1">  1       21 0.19435560E-01 0.24742389E+03</pdfrwt>
<pdfrwt beam="2">  1       21 0.14166657E+00 0.24742389E+03</pdfrwt>
<totfact> 0.81323764E+03</totfact>
</mgrwt>
</event>
<event>
 6      1 +2.5168241e+02 2.81978000e+02 7.54677100e-03 1.04003000e-01
       21 -1    0    0  504  502 +0.0000000000e+00 +0.0000000000e+00 +1.1943900649e+03 1.1943900649e+03 0.0000000000e+00 0.0000e+00 1.0000e+00
       21 -1    0    0  505  503 -0.0000000000e+00 -0.0000000000e+00 -1.5261342235e+02 1.5261342235e+02 0.0000000000e+00 0.0000e+00 1.0000e+00
        6  1    1    2  501    0 -1.1612708114e+02 +1.4948939985e+02 +7.0803125676e+02 7.5304039745e+02 1.7300000000e+02 0.0000e+00 1.0000e+00
       -6  1    1    2    0  503 +2.3824920103e+02 -1.1447210086e+02 +1.6370907696e+02 3.5580360530e+02 1.7300000000e+02 0.0000e+00 1.0000e+00
       21  1    1    2  504  501 -2.7134085102e+01 +3.3024799337e+01 +1.7918106514e+01 4.6346029891e+01 0.0000000000e+00 0.0000e+00 1.0000e+00
       21  1    1    2  505  502 -9.4988034781e+01 -6.8042098318e+01 +1.5211820230e+02 1.9181345460e+02 0.0000000000e+00 0.0000e+00 1.0000e+00
<mgrwt>
<rscale>  4 0.28197803E+03</rscale>
<asrwt>0</asrwt>
<pdfrwt beam="1">  1       21 0.18375231E+00 0.28197803E+03</pdfrwt>
<pdfrwt beam="2">  1       21 0.23478989E-01 0.28197803E+03</pdfrwt>
<totfact> 0.27247024E+03</totfact>
</mgrwt>
</event>
<event>
 6      1 +2.5168241e+02 1.94357600e+02 7.54677100e-03 1.16820100e-01
       21 -1    0    0  501  502 +0.0000000000e+00 +0.0000000000e+00 +1.6823456207e+02 1.6823456207e+02 0.0000000000e+00 0.0000e+00 1.0000e+00
       21 -1    0    0  504  503 -0.0000000000e+00 -0.0000000000e+00 -2.0517756743e+03 2.0517756743e+03 0.0000000000e+00 0.0000e+00 1.0000e+00
        6  1    1    2  501    0 +1.5301740704e+01 +5.0772148163e+01 -6.0425101547e+01 1.9076725923e+02 1.7300000000e+02 0.0000e+00 1.0000e+00
       -6  1    1    2    0  503 -8.7913507107e+01 -1.0965902739e+02 -4.5814405655e+02 5.0948882576e+02 1.7300000000e+02 0.0000e+00 1.0000e+00
       21  1    1    2  504  505 +1.8469858143e+01 +5.6060876400e+01 -1.4321849236e+03 1.4334007161e+03 0.0000000000e+00 0.0000e+00 1.0000e+00
       21  1    1    2  505  502 +5.4141908260e+01 +2.8260028319e+00 +6.7212969466e+01 8.6353435291e+01 0.0000000000e+00 0.0000e+00 1.0000e+00
<mgrwt>
<rscale>  4 0.19435760E+03</rscale>
<asrwt>0</asrwt>
<pdfrwt beam="1">  1       21 0.25882242E-01 0.19435760E+03</pdfrwt>
<pdfrwt beam="2">  1       21 0.31565777E+00 0.19435760E+03</pdfrwt>
<totfact> 0.39204956E+02</totfact>
</mgrwt>
</event>
<event>
 6      1 +2.5168241e+02 4.30782100e+02 7.54677100e-03 1.15942100e-01
       21 -1    0    0  504  502 +0.0000000000e+00 +0.0000000000e+00 +2.6228007108e+02 2.6228007108e+02 0.0000000000e+00 0.0000e+00 1.0000e+00
       21 -1    0    0  501  503 -0.0000000000e+00 -0.0000000000e+00 -1.5630118022e+03 1.5630118022e+03 0.0000000000e+00 0.0000e+00 -1.0000e+00
        6  1    1    2  501    0 +3.8924267759e+02 -3.5250650321e+01 -6.8003550433e+01 4.3278857804e+02 1.7300000000e+02 0.0000e+00 1.0000e+00
       -6  1    1    2    0  502 -3.9460380042e+02 +1.0280318000e+02 -5.5858814125e+02 7.1290277364e+02 1.7300000000e+02 0.0000e+00 -1.0000e+00
       21  1    1    2  504  505 -2.1184263916e+01 -1.4633144062e+01 -1.5924914688e+02 1.6131705652e+02 0.0000000000e+00 0.0000e+00 -1.0000e+00
       21  1    1    2  505  503 +2.6545386746e+01 -5.2919385616e+01 -5.1489089256e+02 5.1828346508e+02 0.0000000000e+00 0.0000e+00 -1.0000e+00
<mgrwt>
<rscale>  4 0.43078207E+03</rscale>
<asrwt>0</asrwt>
<pdfrwt beam="1">  1       21 0.40350780E-01 0.43078207E+03</pdfrwt>
<pdfrwt beam="2">  1       21 0.24046336E+00 0.43078207E+03</pdfrwt>
<totfact> 0.36592175E+02</totfact>
</mgrwt>
</event>
<event>
 6      1 +2.5168241e+02 4.72792200e+02 7.54677100e-03 1.17132900e-01
       21 -1    0    0  503  502 +0.0000000000e+00 +0.0000000000e+00 +1.0413128872e+03 1.0413128872e+03 0.0000000000e+00 0.0000e+00 -1.0000e+00
       21 -1    0    0  504  503 -0.0000000000e+00 -0.0000000000e+00 -3.6626343437e+02 3.6626343437e+02 0.0000000000e+00 0.0000e+00 -1.0000e+00
        6  1    1    2  501    0 -9.7726706500e+01 -3.5672798462e+02 +4.3014918750e+02 5.9309585033e+02 1.7300000000e+02 0.0000e+00 -1.0000e+00
       -6  1    1    2    0  505 +2.3486124776e+02 +4.1807634347e+02 +8.2387408999e+00 5.0984753753e+02 1.7300000000e+02 0.0000e+00 -1.0000e+00
       21  1    1    2  504  501 -1.0251965953e+02 -3.4045894750e+01 +6.2126101152e+01 1.2461563299e+02 0.0000000000e+00 0.0000e+00 -1.0000e+00
       21  1    1    2  505  502 -3.4614881728e+01 -2.7302464099e+01 +1.7453542327e+02 1.8001730072e+02 0.0000000000e+00 0.0000e+00 -1.0000e+00
<mgrwt>
<rscale>  4 0.47279225E+03</rscale>
<asrwt>0</asrwt>
<pdfrwt beam="1">  1       21 0.16020198E+00 0.47279225E+03</pdfrwt>
<pdfrwt beam="2">  1       21 0.56348221E-01 0.47279225E+03</pdfrwt>
<totfact> 0.61428863E+02</totfact>
</mgrwt>
</event>
<event>
 6      1 +2.5168241e+02 1.73568000e+02 7.54677100e-03 1.04003000e-01
       21 -1    0    0  504  502 +0.0000000000e+00 +0.0000000000e+00 +2.5540600270e+02 2.5540600270e+02 0.0000000000e+00 0.0000e+00 1.0000e+00
       21 -1    0    0  505  503 -0.0000000000e+00 -0.0000000000e+00 -7.1310632015e+02 7.1310632015e+02 0.0000000000e+00 0.0000e+00 1.0000e+00
        6  1    1    2  501    0 -3.2602507201e+00 +2.8129369991e+00 +1.1351883757e+02 2.0696393003e+02 1.7300000000e+02 0.0000e+00 1.0000e+00
       -6  1    1    2    0  503 +1.8439023519e+01 -1.3482451790e+01 -9.0565446780e-01 1.7450385183e+02 1.7300000000e+02 0.0000e+00 -1.0000e+00
       21  1    1    2  504  501 -2.5187188858e+01 -1.0341532381e+01 -5.6149819892e+02 5.6215795749e+02 0.0000000000e+00 0.0000e+00 1.0000e+00
       21  1    1    2  505  502 +1.0008416060e+01 +2.1011047173e+01 -8.8153016340e+00 2.4886583498e+01 0.0000000000e+00 0.0000e+00 1.0000e+00
<mgrwt>
<rscale>  4 0.17356795E+03</rscale>
<asrwt>0</asrwt>
<pdfrwt beam="1">  1       21 0.39293231E-01 0.17356795E+03</pdfrwt>
<pdfrwt beam="2">  1       21 0.10970866E+00 0.17356795E+03</pdfrwt>
<totfact> 0.41715802E+03</totfact>
</mgrwt>
</event>
<event>
 6      1 +2.5168241e+02 1.91381100e+02 7.54677100e-03 1.07064900e-01
       21 -1    0    0  501  502 +0.0000000000e+00 +0.0000000000e+00 +6.8537616561e+02 6.8537616561e+02 0.0000000000e+00 0.0000e+00 1.0000e+00
       21 -1    0    0  504  503 -0.0000000000e+00 -0.0000000000e+00 -2.2686297559e+02 2.2686297559e+02 0.0000000000e+00 0.0000e+00 1.0000e+00
        6  1    1    2  501    0 +1.3086068729e+02 -1.5547893079e+01 +4.0844126335e+02 4.6273050695e+02 1.7300000000e+02 0.0000e+00 1.0000e+00
       -6  1    1    2    0  503 -7.1098950147e+01 +2.9514557411e+01 -1.4746468876e+02 2.4000209216e+02 1.7300000000e+02 0.0000e+00 1.0000e+00
       21  1    1    2  504  505 -1.6255532117e+01 -1.3901249121e+01 +3.3080096797e+01 3.9392637074e+01 0.0000000000e+00 0.0000e+00 1.0000e+00
       21  1    1    2  505  502 -4.3506205024e+01 -6.5415210952e-02 +1.6445651864e+02 1.7011390501e+02 0.0000000000e+00 0.0000e+00 1.0000e+00
<mgrwt>
<rscale>  4 0.19138111E+03</rscale>
<asrwt>0</asrwt>
<pdfrwt beam="1">  1       21 0.10544249E+00 0.19138111E+03</pdfrwt>
<pdfrwt beam="2">  1       21 0.34901996E-01 0.19138111E+03</pdfrwt>
<totfact> 0.57293631E+03</totfact>
</mgrwt>
</event>
<event>
 6      1 +2.5168241e+02 2.25240000e+02 7.54677100e-03 1.15942100e-01
       21 -1    0    0  504  502 +0.0000000000e+00 +0.0000000000e+00 +3.4814064662e+03 3.4814064662e+03 0.0000000000e+00 0.0000e+00 -1.0000e+00
       21 -1    0    0  501  503 -0.0000000000e+00 -0.0000000000e+00 -7.2796501498e+01 7.2796501498e+01 0.0000000000e+00 0.0000e+00 -1.0000e+00
        6  1    1    2  501    0 -9.8714097787e+01 -1.0079313852e+02 +3.4737271123e+02 4.1291709868e+02 1.7300000000e+02 0.0000e+00 -1.0000e+00
       -6  1    1    2    0  502 +1.4873513255e+02 +8.7578728744e+00 +3.0167669559e+03 3.0253943059e+03 1.7300000000e+02 0.0000e+00 -1.0000e+00
       21  1    1    2  504  505 -2.3023021540e+01 +4.3784972531e+01 +9.2211515779e+00 5.0321098724e+01 0.0000000000e+00 0.0000e+00 -1.0000e+00
       21  1    1    2  505  503 -2.6998013226e+01 +4.8250293116e+01 +3.5249145948e+01 6.5570464342e+01 0.0000000000e+00 0.0000e+00 -1.0000e+00
<mgrwt>
<rscale>  4 0.22523998E+03</rscale>
<asrwt>0</asrwt>
<pdfrwt beam="1">  1       21 0.53560086E+00 0.22523998E+03</pdfrwt>
<pdfrwt beam="2">  1       21 0.11199464E-01 0.22523998E+03</pdfrwt>
<totfact> 0.65811576E+01</totfact>
</mgrwt>
</event>
<event>
 6      1 +2.5168241e+02 2.03401300e+02 7.54677100e-03 1.11910500e-01
       21 -1    0    0  501  502 +0.0000000000e+00 +0.0000000000e+00 +3.3007695060e+02 3.3007695060e+02 0.0000000000e+00 0.0000e+00 1.0000e+00
       21 -1    0    0  504  503 -0.0000000000e+00 -0.0000000000e+00 -3.2425106298e+02 3.2425106298e+02 0.0000000000e+00 0.0000e+00 1.0000e+00
        6  1    1    2  501    0 -1.1243846994e+02 +3.1451823274e+00 -1.4874328111e+01 2.0688776506e+02 1.7300000000e+02 0.0000e+00 -1.0000e+00
       -6  1    1    2    0  503 +8.8844677443e+01 -6.6207487031e+01 +1.7958254467e+02 2.7286571495e+02 1.7300000000e+02 0.0000e+00 1.0000e+00
       21  1    1    2  504  505 +1.8023856232e+00 +3.0220761870e+01 -9.2990411543e+01 9.7794476740e+01 0.0000000000e+00 0.0000e+00 1.0000e+00
       21  1    1    2  505  502 +2.1791406875e+01 +3.2841542834e+01 -6.5891917393e+01 7.6780056831e+01 0.0000000000e+00 0.0000e+00 1.0000e+00
<mgrwt>
<rscale>  4 0.20340133E+03</rscale>
<asrwt>0</asrwt>
<pdfrwt beam="1">  1       21 0.50781069E-01 0.20340133E+03</pdfrwt>
<pdfrwt beam="2">  1       21 0.49884779E-01 0.20340133E+03</pdfrwt>
<totfact> 0.14027172E+04</totfact>
</mgrwt>
</event>
<event>
 6      1 +2.5168241e+02 3.56759600e+02 7.54677100e-03 1.04003000e-01
       21 -1    0    0  504  502 +0.0000000000e+00 +0.0000000000e+00 +1.2934375766e+03 1.2934375766e+03 0.0000000000e+00 0.0000e+00 -1.0000e+00
       21 -1    0    0  505  503 -0.0000000000e+00 -0.0000000000e+00 -5.7479932453e+02 5.7479932453e+02 0.0000000000e+00 0.0000e+00 -1.0000e+00
        6  1    1    2  501    0 -1.5532068173e+02 +2.4491561412e+02 +1.0878267388e+03 1.1390365165e+03 1.7300000000e+02 0.0000e+00 -1.0000e+00
       -6  1    1    2    0  503 -6.1633701548e+01 -9.1380853234e+01 -2.3949607374e+01 2.0652301857e+02 1.7300000000e+02 0.0000e+00 1.0000e+00
       21  1    1    2  504  501 +2.2770714764e+02 -1.8014421230e+02 -3.7959772917e+02 4.7790890168e+02 0.0000000000e+00 0.0000e+00 -1.0000e+00
       21  1    1    2  505  502 -1.0752764356e+01 +2.6609451414e+01 +3.4358849848e+01 4.4768464444e+01 0.0000000000e+00 0.0000e+00 -1.0000e+00
<mgrwt>
<rscale>  4 0.31042824E+03</rscale>
<asrwt>0</asrwt>
<pdfrwt beam="1">  1       21 0.19899040E+00 0.35675961E+03</pdfrwt>
<pdfrwt beam="2">  1       21 0.88430665E-01 0.35675961E+03</pdfrwt>
<totfact> 0.12654122E+02</totfact>
</mgrwt>
</event>
<event>
 6      1 +2.5168241e+02 1.87210300e+02 7.54677100e-03 1.07064900e-01
       21 -1    0    0  501  502 +0.0000000000e+00 +0.0000000000e+00 +1.3411501832e+02 1.3411501832e+02 0.0000000000e+00 0.0000e+00 -1.0000e+00
       21 -1    0    0  504  503 -0.0000000000e+00 -0.0000000000e+00 -4.9306579184e+02 4.9306579184e+02 0.0000000000e+00 0.0000e+00 1.0000e+00
        6  1    1    2  501    0 -8.2624342913e+01 +3.7573476825e+01 -1.0140532830e+02 2.2011494454e+02 1.7300000000e+02 0.0000e+00 -1.0000e+00
       -6  1    1    2    0  503 +5.6624520535e+01 -2.6901147688e+01 -2.8207923502e+02 3.3679029514e+02 1.7300000000e+02 0.0000e+00 1.0000e+00
       21  1    1    2  504  505 +2.8534704593e+01 +1.6318705439e+01 -1.2048751760e+00 3.2893483209e+01 0.0000000000e+00 0.0000e+00 1.0000e+00
       21  1    1    2  505  502 -2.5348822146e+00 -2.6991034576e+01 +2.5738664962e+01 3.7382087279e+01 0.0000000000e+00 0.0000e+00 1.0000e+00
<mgrwt>
<rscale>  4 0.18721030E+03</rscale>
<asrwt>0</asrwt>
<pdfrwt beam="1">  1       21 0.20633080E-01 0.18721030E+03</pdfrwt>
<pdfrwt beam="2">  1       21 0.75856274E-01 0.18721030E+03</pdfrwt>
<totfact> 0.33852072E+04</totfact>
</mgrwt>
</event>
<event>
 6      1 +2.5168241e+02 2.35494300e+02 7.54677100e-03 1.17132900e-01
       21 -1    0    0  505  502 +0.0000000000e+00 +0.0000000000e+00 +7.4721100518e+02 7.4721100518e+02 0.0000000000e+00 0.0000e+00 -1.0000e+00
       21 -1    0    0  504  503 -0.0000000000e+00 -0.0000000000e+00 -1.1191562899e+03 1.1191562899e+03 0.0000000000e+00 0.0000e+00 1.0000e+00
        6  1    1    2  501    0 +1.4097823396e+02 +1.0262056777e+02 -4.0845619221e+02 4.7662490948e+02 1.7300000000e+02 0.0000e+00 1.0000e+00
       -6  1    1    2    0  502 -1.7107347630e+02 +4.0657521897e+01 -6.2157589615e+02 6.6873370115e+02 1.7300000000e+02 0.0000e+00 -1.0000e+00
       21  1    1    2  504  501 +2.3982430786e+01 -1.0893258712e+02 +6.9570173300e+01 1.3145902227e+02 0.0000000000e+00 0.0000e+00 1.0000e+00
       21  1    1    2  505  503 +6.1128115567e+00 -3.4345502548e+01 +5.8851663033e+02 5.8954966219e+02 0.0000000000e+00 0.0000e+00 -1.0000e+00
<mgrwt>
<rscale>  4 0.23549425E+03</rscale>
<asrwt>0</asrwt>
<pdfrwt beam="1">  1       21 0.11495554E+00 0.23549425E+03</pdfrwt>
<pdfrwt beam="2">  1       21 0.17217789E+00 0.23549425E+03</pdfrwt>
<totfact> 0.11448837E+02</totfact>
</mgrwt>
</event>
<event>
 6      1 +2.5168241e+02 1.81564800e+02 7.54677100e-03 1.07064900e-01
       21 -1    0    0  505  502 +0.0000000000e+00 +0.0000000000e+00 +3.3336801442e+02 3.3336801442e+02 0.0000000000e+00 0.0000e+00 -1.0000e+00
       21 -1    0    0  504  503 -0.0000000000e+00 -0.0000000000e+00 -5.4089725382e+02 5.4089725382e+02 0.0000000000e+00 0.0000e+00 -1.0000e+00
        6  1    1    2  501    0 -9.1044009041e+01 -1.4380807670e+01 -3.5870738724e+02 4.0877354229e+02 1.7300000000e+02 0.0000e+00 -1.0000e+00
       -6  1    1    2    0  503 +2.0240388183e+00 -8.8035743809e+01 -4.2780148039e+01 1.9878010461e+02 1.7300000000e+02 0.0000e+00 1.0000e+00
       21  1    1    2  504  502 +6.0560806738e+01 +1.0153145767e+02 +2.0461284261e+02 2.3631052361e+02 0.0000000000e+00 0.0000e+00 -1.0000e+00
       21  1    1    2  505  501 +2.8459163484e+01 +8.8509380983e-01 -1.0654546727e+01 3.0401097731e+01 0.0000000000e+00 0.0000e+00 -1.0000e+00
<mgrwt>
<rscale>  4 0.18156477E+03</rscale>
<asrwt>0</asrwt>
<pdfrwt beam="1">  1       21 0.51287387E-01 0.18156477E+03</pdfrwt>
<pdfrwt beam="2">  1       21 0.83214962E-01 0.18156477E+03</pdfrwt>
<totfact> 0.45854463E+03</totfact>
</mgrwt>
</event>
<event>
 6      1 +2.5168241e+02 3.72924400e+02 7.54677100e-03 1.15942100e-01
       21 -1    0    0  504  502 +0.0000000000e+00 +0.0000000000e+00 +2.6678183230e+02 2.6678183230e+02 0.0000000000e+00 0.0000e+00 -1.0000e+00
       21 -1    0    0  501  503 -0.0000000000e+00 -0.0000000000e+00 -1.2384927914e+03 1.2384927914e+03 0.0000000000e+00 0.0000e+00 -1.0000e+00
        6  1    1    2  501    0 +2.0041132459e+01 +3.4931099118e+02 +2.9462240227e+01 3.9142922624e+02 1.7300000000e+02 0.0000e+00 -1.0000e+00
       -6  1    1    2    0  502 +6.1642501465e+01 -9.3724770469e+01 -3.9191428153e+02 4.4284301356e+02 1.7300000000e+02 0.0000e+00 1.0000e+00
       21  1    1    2  504  505 -4.1157776831e+01 -2.2635957611e+02 -5.2194930528e+02 5.7040660723e+02 0.0000000000e+00 0.0000e+00 -1.0000e+00
       21  1    1    2  505  503 -4.0525857094e+01 -2.9226644607e+01 -8.7309612539e+01 1.0059577670e+02 0.0000000000e+00 0.0000e+00 -1.0000e+00
<mgrwt>
<rscale>  4 0.32157401E+03</rscale>
<asrwt>0</asrwt>
<pdfrwt beam="1">  1       21 0.41043359E-01 0.37292436E+03</pdfrwt>
<pdfrwt beam="2">  1       21 0.19053735E+00 0.37292436E+03</pdfrwt>
<totfact> 0.76561492E+02</totfact>
</mgrwt>
</event>
<event>
 6      1 +2.5168241e+02 2.61076200e+02 7.54677100e-03 1.11471900e-01
       21 -1    0    0  503  502 +0.0000000000e+00 +0.0000000000e+00 +1.7992738403e+02 1.7992738403e+02 0.0000000000e+00 0.0000e+00 1.0000e+00
       21 -1    0    0  501  503 -0.0000000000e+00 -0.0000000000e+00 -7.0264310450e+02 7.0264310450e+02 0.0000000000e+00 0.0000e+00 -1.0000e+00
        6  1    1    2  501    0 +2.0275718515e+02 -2.0289820438e+00 -3.6461760929e+02 4.5165207173e+02 1.7300000000e+02 0.0000e+00 -1.0000e+00
       -6  1    1    2    0  504 -1.8485536067e+02 +1.8748769333e+01 -2.0164792750e+02 3.2421275019e+02 1.7300000000e+02 0.0000e+00 1.0000e+00
       21  1    1    2  504  505 -1.3677399308e+01 -4.0996697005e+01 -1.2908022128e+01 4.5104516984e+01 0.0000000000e+00 0.0000e+00 -1.0000e+00
       21  1    1    2  505  502 -4.2244251671e+00 +2.4276909716e+01 +5.6457838441e+01 6.1601149622e+01 0.0000000000e+00 0.0000e+00 1.0000e+00
<mgrwt>
<rscale>  4 0.26107623E+03</rscale>
<asrwt>0</asrwt>
<pdfrwt beam="1">  1       21 0.27681137E-01 0.26107623E+03</pdfrwt>
<pdfrwt beam="2">  1       21 0.10809894E+00 0.26107623E+03</pdfrwt>
<totfact> 0.81160889E+03</totfact>
</mgrwt>
</event>
<event>
 6      1 +2.5168241e+02 4.07639600e+02 7.54677100e-03 9.87464100e-02
       21 -1    0    0  503  502 +0.0000000000e+00 +0.0000000000e+00 +1.1194652689e+03 1.1194652689e+03 0.0000000000e+00 0.0000e+00 -1.0000e+00
       21 -1    0    0  505  503 -0.0000000000e+00 -0.0000000000e+00 -3.6940261306e+02 3.6940261306e+02 0.0000000000e+00 0.0000e+00 1.0000e+00
        6  1    1    2  501    0 -1.5558115475e+02 -4.0837281422e+02 +1.8720246568e+02 5.0591265478e+02 1.7300000000e+02 0.0000e+00 -1.0000e+00
       -6  1    1    2    0  504 -3.8890555383e+01 +3.4760470025e+02 +3.8694422195e+02 5.4954193091e+02 1.7300000000e+02 0.0000e+00 1.0000e+00
       21  1    1    2  504  502 +2.1914278971e+02 +1.5984071551e+02 +1.8883419000e+02 3.3050108612e+02 0.0000000000e+00 0.0000e+00 1.0000e+00
       21  1    1    2  505  501 -2.4671079574e+01 -9.9072601533e+01 -1.2918221783e+01 1.0291221014e+02 0.0000000000e+00 0.0000e+00 1.0000e+00
<mgrwt>
<rscale>  4 0.40763955E+03</rscale>
<asrwt>0</asrwt>
<pdfrwt beam="1">  1       21 0.17222542E+00 0.40763955E+03</pdfrwt>
<pdfrwt beam="2">  1       21 0.56831172E-01 0.40763955E+03</pdfrwt>
<totfact> 0.50720834E+02</totfact>
</mgrwt>
</event>
<event>
 6      1 +2.5168241e+02 2.57210500e+02 7.54677100e-03 1.16820100e-01
       21 -1    0    0  505  502 +0.0000000000e+00 +0.0000000000e+00 +1.5363616158e+03 1.5363616158e+03 0.0000000000e+00 0.0000e+00 -1.0000e+00
       21 -1    0    0  501  503 -0.0000000000e+00 -0.0000000000e+00 -1.9091040313e+02 1.9091040313e+02 0.0000000000e+00 0.0000e+00 -1.0000e+00
        6  1    1    2  501    0 -1.7595974440e+02 +9.6452015668e+01 -2.4758166738e+01 2.6609545241e+02 1.7300000000e+02 0.0000e+00 -1.0000e+00
       -6  1    1    2    0  502 +1.9047139553e+02 -6.9206237502e+01 +5.1567481247e+02 5.8044669698e+02 1.7300000000e+02 0.0000e+00 -1.0000e+00
       21  1    1    2  504  503 +2.1336413384e+01 +5.3390057203e+00 -2.6715768771e+00 2.2155921132e+01 0.0000000000e+00 0.0000e+00 1.0000e+00
       21  1    1    2  505  504 -3.5848064512e+01 -3.2584783886e+01 +8.5720614378e+02 8.5857394836e+02 0.0000000000e+00 0.0000e+00 -1.0000e+00
<mgrwt>
<rscale>  4 0.25721049E+03</rscale>
<asrwt>0</asrwt>
<pdfrwt beam="1">  1       21 0.23636332E+00 0.25721049E+03</pdfrwt>
<pdfrwt beam="2">  1       21 0.29370832E-01 0.25721049E+03</pdfrwt>
<totfact> 0.83017990E+02</totfact>
</mgrwt>
</event>
<event>
 6      1 +2.5168241e+02 2.43440800e+02 7.54677100e-03 9.87464100e-02
       21 -1    0    0  503  502 +0.0000000000e+00 +0.0000000000e+00 +2.5049232360e+03 2.5049232360e+03 0.0000000000e+00 0.0000e+00 1.0000e+00
       21 -1    0    0  505  503 -0.0000000000e+00 -0.0000000000e+00 -9.0091154128e+01 9.0091154128e+01 0.0000000000e+00 0.0000e+00 -1.0000e+00
        6  1    1    2  501    0 -5.2346020818e+00 +1.8592022691e+02 +1.7609810761e+03 1.7792068689e+03 1.7300000000e+02 0.0000e+00 1.0000e+00
       -6  1    1    2    0  504 +1.6725392815e+02 -8.4892192060e+01 +3.4849972438e+02 4.3192779333e+02 1.7300000000e+02 0.0000e+00 -1.0000e+00
       21  1    1    2  504  502 -1.6324621892e+02 -7.6612279784e+01 +3.1034077041e+02 3.5892918965e+02 0.0000000000e+00 0.0000e+00 1.0000e+00
       21  1    1    2  505  501 +1.2268928531e+00 -2.4415755062e+01 -4.9894889999e+00 2.4950538307e+01 0.0000000000e+00 0.0000e+00 -1.0000e+00
<mgrwt>
<rscale>  4 0.24344081E+03</rscale>
<asrwt>0</asrwt>
<pdfrwt beam="1">  1       21 0.38537275E+00 0.24344081E+03</pdfrwt>
<pdfrwt beam="2">  1       21 0.13860179E-01 0.24344081E+03</pdfrwt>
<totfact> 0.45135196E+02</totfact>
</mgrwt>
</event>
<event>
 6      1 +2.5168241e+02 2.39634300e+02 7.54677100e-03 1.17132900e-01
       21 -1    0    0  505  502 +0.0000000000e+00 +0.0000000000e+00 +4.0167797897e+02 4.0167797897e+02 0.0000000000e+00 0.0000e+00 1.0000e+00
       21 -1    0    0  504  503 -0.0000000000e+00 -0.0000000000e+00 -1.1479917125e+03 1.1479917125e+03 0.0000000000e+00 0.0000e+00 -1.0000e+00
        6  1    1    2  501    0 -2.1596834885e+01 +2.5122388386e+02 -6.0725505336e+02 6.7990261283e+02 1.7300000000e+02 0.0000e+00 1.0000e+00
       -6  1    1    2    0  502 -3.1212978078e+00 -9.1226642831e+01 -1.6127306885e+02 2.5351537547e+02 1.7300000000e+02 0.0000e+00 -1.0000e+00
       21  1    1    2  504  501 -1.2854055126e+01 -7.0102601683e+01 -2.8509425998e+02 2.9386789305e+02 0.0000000000e+00 0.0000e+00 -1.0000e+00
       21  1    1    2  505  503 +3.7572187819e+01 -8.9894639340e+01 +3.0730864867e+02 3.2238381012e+02 0.0000000000e+00 0.0000e+00 1.0000e+00
<mgrwt>
<rscale>  4 0.23963425E+03</rscale>
<asrwt>0</asrwt>
<pdfrwt beam="1">  1       21 0.61796614E-01 0.23963425E+03</pdfrwt>
<pdfrwt beam="2">  1       21 0.17661410E+00 0.23963425E+03</pdfrwt>
<totfact> 0.44354384E+02</totfact>
</mgrwt>
</event>
<event>
 6      1 +2.5168241e+02 1.84881100e+02 7.54677100e-03 1.17132900e-01
       21 -1    0    0  505  502 +0.0000000000e+00 +0.0000000000e+00 +1.0116416776e+03 1.0116416776e+03 0.0000000000e+00 0.0000e+00 1.0000e+00
       21 -1    0    0  504  503 -0.0000000000e+00 -0.0000000000e+00 -7.2413931656e+01 7.2413931656e+01 0.0000000000e+00 0.0000e+00 1.0000e+00
        6  1    1    2  501    0 +9.1156841536e+01 +3.5239589919e+01 +1.6811652142e+02 2.6027593671e+02 1.7300000000e+02 0.0000e+00 1.0000e+00
       -6  1    1    2    0  502 -9.1764932976e+00 +1.7870804718e+01 +3.9000400570e+02 4.2712492101e+02 1.7300000000e+02 0.0000e+00 1.0000e+00
       21  1    1    2  504  501 -5.4375251249e+01 -2.1212399353e+01 +1.3677828650e+02 1.4871090576e+02 0.0000000000e+00 0.0000e+00 1.0000e+00
       21  1    1    2  505  503 -2.7605096990e+01 -3.1897995284e+01 +2.4432893228e+02 2.4794384572e+02 0.0000000000e+00 0.0000e+00 1.0000e+00
<mgrwt>
<rscale>  4 0.18488112E+03</rscale>
<asrwt>0</asrwt>
<pdfrwt beam="1">  1       21 0.15563717E+00 0.18488112E+03</pdfrwt>
<pdfrwt beam="2">  1       21 0.11140606E-01 0.18488112E+03</pdfrwt>
<totfact> 0.18261763E+04</totfact>
</mgrwt>
</event>
<event>
 6      1 +2.5168241e+02 2.27241700e+02 7.54677100e-03 1.16820100e-01
       21 -1    0    0  505  502 +0.0000000000e+00 +0.0000000000e+00 +6.6664327355e+02 6.6664327355e+02 0.0000000000e+00 0.0000e+00 -1.0000e+00
       21 -1    0    0  501  503 -0.0000000000e+00 -0.0000000000e+00 -1.3750858417e+02 1.3750858417e+02 0.0000000000e+00 0.0000e+00 -1.0000e+00
        6  1    1    2  501    0 +9.5948110092e+01 -8.3050978533e+01 +7.9703655105e+01 2.2887808436e+02 1.7300000000e+02 0.0000e+00 -1.0000e+00
       -6  1    1    2    0  502 -1.3011667917e+02 +8.5291767568e+01 +4.4029989379e+02 4.9799400828e+02 1.7300000000e+02 0.0000e+00 -1.0000e+00
       21  1    1    2  504  503 +2.7351534531e+01 -3.0174870839e+01 -1.0992297953e+01 4.2183644765e+01 0.0000000000e+00 0.0000e+00 -1.0000e+00
       21  1    1    2  505  504 +6.8170345477e+00 +2.7934081805e+01 +2.0123438434e+01 3.5096120308e+01 0.0000000000e+00 0.0000e+00 -1.0000e+00
<mgrwt>
<rscale>  4 0.22724166E+03</rscale>
<asrwt>0</asrwt>
<pdfrwt beam="1">  1       21 0.10256050E+00 0.22724166E+03</pdfrwt>
<pdfrwt beam="2">  1       21 0.21155167E-01 0.22724166E+03</pdfrwt>
<totfact> 0.15718710E+04</totfact>
</mgrwt>
</event>
<event>
 6      1 +2.5168241e+02 3.82774300e+02 7.54677100e-03 1.16820100e-01
       21 -1    0    0  505  502 +0.0000000000e+00 +0.0000000000e+00 +1.5027775879e+03 1.5027775879e+03 0.0000000000e+00 0.0000e+00 -1.0000e+00
       21 -1    0    0  504  503 -0.0000000000e+00 -0.0000000000e+00 -2.0964612769e+03 2.0964612769e+03 0.0000000000e+00 0.0000e+00 1.0000e+00
        6  1    1    2  501    0 -1.2505401333e+02 -3.8496617086e+02 -1.3099024457e+02 4.5926561283e+02 1.7300000000e+02 0.0000e+00 1.0000e+00
       -6  1    1    2    0  503 +3.2993405736e+01 +2.8046090088e+02 -2.5299310178e+02 4.1675099435e+02 1.7300000000e+02 0.0000e+00 1.0000e+00
       21  1    1    2  504  502 +9.2270280217e+01 +6.1764912161e+01 -1.4639949997e+03 1.4681996009e+03 0.0000000000e+00 0.0000e+00 1.0000e+00
       21  1    1    2  505  501 -2.0967262486e-01 +4.2740357810e+01 +1.2542946570e+03 1.2550226567e+03 0.0000000000e+00 0.0000e+00 -1.0000e+00
<mgrwt>
<rscale>  4 0.38277434E+03</rscale>
<asrwt>0</asrwt>
<pdfrwt beam="1">  1       21 0.23119655E+00 0.38277434E+03</pdfrwt>
<pdfrwt beam="2">  1       21 0.32253250E+00 0.38277434E+03</pdfrwt>
<totfact> 0.15976463E+00</totfact>
</mgrwt>
</event>
<event>
 6      1 +2.5168241e+02 1.88717800e+02 7.54677100e-03 1.11910500e-01
       21 -1    0    0  501  502 +0.0000000000e+00 +0.0000000000e+00 +2.0666061868e+03 2.0666061868e+03 0.0000000000e+00 0.0000e+00 1.0000e+00
       21 -1    0    0  505  503 -0.0000000000e+00 -0.0000000000e+00 -2.2166942571e+02 2.2166942571e+02 0.0000000000e+00 0.0000e+00 1.0000e+00
        6  1    1    2  501    0 -6.0065343422e+01 -3.1358751186e+01 +1.7933658605e+03 1.8029645937e+03 1.7300000000e+02 0.0000e+00 1.0000e+00
       -6  1    1    2    0  504 +1.7859623422e+02 +1.1201346224e+02 +1.3488394786e+02 3.0424711994e+02 1.7300000000e+02 0.0000e+00 1.0000e+00
       21  1    1    2  504  503 -6.0150749310e+00 -4.1013912549e+01 -2.0579325697e+01 4.6279917838e+01 0.0000000000e+00 0.0000e+00 1.0000e+00
       21  1    1    2  505  502 -1.1251581587e+02 -3.9640798506e+01 -6.2733721519e+01 1.3478398103e+02 0.0000000000e+00 0.0000e+00 1.0000e+00
<mgrwt>
<rscale>  4 0.18871775E+03</rscale>
<asrwt>0</asrwt>
<pdfrwt beam="1">  1       21 0.31793940E+00 0.18871775E+03</pdfrwt>
<pdfrwt beam="2">  1       21 0.34102990E-01 0.18871775E+03</pdfrwt>
<totfact> 0.22428989E+02</totfact>
</mgrwt>
</event>
<event>
 6      1 +2.5168241e+02 1.73775000e+02 7.54677100e-03 1.17132900e-01
       21 -1    0    0  505  502 +0.0000000000e+00 +0.0000000000e+00 +6.9624063495e+01 6.9624063495e+01 0.0000000000e+00 0.0000e+00 -1.0000e+00
       21 -1    0    0  504  503 -0.0000000000e+00 -0.0000000000e+00 -1.5467994583e+03 1.5467994583e+03 0.0000000000e+00 0.0000e+00 1.0000e+00
        6  1    1    2  501    0 +8.2040186821e+01 -3.6844408803e+01 -4.8319657487e+02 5.2105281180e+02 1.7300000000e+02 0.0000e+00 -1.0000e+00
       -6  1    1    2    0  502 +4.7414809260e+01 -2.9819960504e+01 -4.6993768486e+02 5.0389266896e+02 1.7300000000e+02 0.0000e+00 1.0000e+00
       21  1    1    2  504  501 -1.4585498237e+02 +7.8777513259e+01 -5.4045329617e+02 5.6530464161e+02 0.0000000000e+00 0.0000e+00 1.0000e+00
       21  1    1    2  505  503 +1.6399986290e+01 -1.2113143952e+01 +1.6412161088e+01 2.6173399441e+01 0.0000000000e+00 0.0000e+00 -1.0000e+00
<mgrwt>
<rscale>  4 0.17377501E+03</rscale>
<asrwt>0</asrwt>
<pdfrwt beam="1">  1       21 0.10711396E-01 0.17377501E+03</pdfrwt>
<pdfrwt beam="2">  1       21 0.23796911E+00 0.17377501E+03</pdfrwt>
<totfact> 0.57394768E+03</totfact>
</mgrwt>
</event>
<event>
 6      1 +2.5168241e+02 1.74783500e+02 7.54677100e-03 1.17132900e-01
       21 -1    0    0  503  502 +0.0000000000e+00 +0.0000000000e+00 +2.5100492923e+02 2.5100492923e+02 0.0000000000e+00 0.0000e+00 -1.0000e+00
       21 -1    0    0  504  503 -0.0000000000e+00 -0.0000000000e+00 -8.2018917382e+02 8.2018917382e+02 0.0000000000e+00 0.0000e+00 -1.0000e+00
        6  1    1    2  501    0 +2.2085798702e+01 -4.6596572122e+01 -6.8464071759e+01 1.9306825777e+02 1.7300000000e+02 0.0000e+00 -1.0000e+00
       -6  1    1    2    0  505 +1.9907145517e+01 -2.9285929241e+01 -1.8168784588e+02 2.5336423077e+02 1.7300000000e+02 0.0000e+00 -1.0000e+00
       21  1    1    2  504  501 -5.0025761684e+01 +1.0312164196e+02 -4.6353495836e+02 4.7749482457e+02 0.0000000000e+00 0.0000e+00 -1.0000e+00
       21  1    1    2  505  502 +8.0328174644e+00 -2.7239140596e+01 +1.4450263140e+02 1.4726678994e+02 0.0000000000e+00 0.0000e+00 -1.0000e+00
<mgrwt>
<rscale>  4 0.17478347E+03</rscale>
<asrwt>0</asrwt>
<pdfrwt beam="1">  1       21 0.38616143E-01 0.17478347E+03</pdfrwt>
<pdfrwt beam="2">  1       21 0.12618295E+00 0.17478347E+03</pdfrwt>
<totfact> 0.30619320E+03</totfact>
</mgrwt>
</event>
<event>
 6      1 +2.5168241e+02 2.89670000e+02 7.54677100e-03 9.87464100e-02
       21 -1    0    0  503  502 +0.0000000000e+00 +0.0000000000e+00 +4.8750308741e+02 4.8750308741e+02 0.0000000000e+00 0.0000e+00 -1.0000e+00
       21 -1    0    0  505  503 -0.0000000000e+00 -0.0000000000e+00 -5.3314785515e+02 5.3314785515e+02 0.0000000000e+00 0.0000e+00 1.0000e+00
        6  1    1    2  501    0 +1.3243465167e+02 +2.0629666619e+02 +3.7838998284e+02 4.8291327436e+02 1.7300000000e+02 0.0000e+00 -1.0000e+00
       -6  1    1    2    0  504 -9.8629430582e+01 -1.1725638674e+02 -2.8663170745e+02 3.6818957145e+02 1.7300000000e+02 0.0000e+00 1.0000e+00
       21  1    1    2  504  502 +8.4978255238e-01 -2.0170378152e+01 -1.6120115763e+01 2.5834558587e+01 0.0000000000e+00 0.0000e+00 1.0000e+00
       21  1    1    2  505  501 -3.4655003643e+01 -6.8869901293e+01 -1.2128292737e+02 1.4371353817e+02 0.0000000000e+00 0.0000e+00 1.0000e+00
<mgrwt>
<rscale>  4 0.28967004E+03</rscale>
<asrwt>0</asrwt>
<pdfrwt beam="1">  1       21 0.75000475E-01 0.28967004E+03</pdfrwt>
<pdfrwt beam="2">  1       21 0.82022747E-01 0.28967004E+03</pdfrwt>
<totfact> 0.19214341E+03</totfact>
</mgrwt>
</event>
<event>
 6      1 +2.5168241e+02 2.74306800e+02 7.54677100e-03 1.16519500e-01
       21 -1    0    0  505  502 +0.0000000000e+00 +0.0000000000e+00 +8.1643365892e+02 8.1643365892e+02 0.0000000000e+00 0.0000e+00 -1.0000e+00
       21 -1    0    0  504  503 -0.0000000000e+00 -0.0000000000e+00 -2.1966104966e+02 2.1966104966e+02 0.0000000000e+00 0.0000e+00 1.0000e+00
        6  1    1    2  501    0 -5.4393428022e-02 -2.1441492733e+02 +1.3107317806e+01 2.7581618118e+02 1.7300000000e+02 0.0000e+00 -1.0000e+00
       -6  1    1    2    0  503 -1.3911610261e+02 +2.1254327589e+01 +3.9617651141e+02 4.5463157022e+02 1.7300000000e+02 0.0000e+00 1.0000e+00
       21  1    1    2  504  502 +2.6185668132e+01 +1.4766158279e+01 +2.7158662234e+01 4.0513227225e+01 0.0000000000e+00 0.0000e+00 1.0000e+00
       21  1    1    2  505  501 +1.1298482791e+02 +1.7839444146e+02 +1.6033011781e+02 2.6513372995e+02 0.0000000000e+00 0.0000e+00 1.0000e+00
<mgrwt>
<rscale>  4 0.26047084E+03</rscale>
<asrwt>0</asrwt>
<pdfrwt beam="1">  1       21 0.12560518E+00 0.27430677E+03</pdfrwt>
<pdfrwt beam="2">  1       21 0.33794008E-01 0.27430677E+03</pdfrwt>
<totfact> 0.37470004E+03</totfact>
</mgrwt>
</event>
<event>
 6      1 +2.5168241e+02 2.13797500e+02 7.54677100e-03 1.11910500e-01
       21 -1    0    0  501  502 +0.0000000000e+00 +0.0000000000e+00 +7.9429442805e+02 7.9429442805e+02 0.0000000000e+00 0.0000e+00 1.0000e+00
       21 -1    0    0  505  503 -0.0000000000e+00 -0.0000000000e+00 -2.2733748590e+02 2.2733748590e+02 0.0000000000e+00 0.0000e+00 1.0000e+00
        6  1    1    2  501    0 +2.0672951698e+02 -5.4900312108e+01 +3.2889286113e+02 4.2877809128e+02 1.7300000000e+02 0.0000e+00 1.0000e+00
       -6  1    1    2    0  504 -8.1088338792e+01 +9.3161502138e+00 +3.3828012381e+02 3.8861877401e+02 1.7300000000e+02 0.0000e+00 1.0000e+00
       21  1    1    2  504  503 +3.0915600012e+00 -2.2560235689e+01 -4.1205878953e+01 4.7079150777e+01 0.0000000000e+00 0.0000e+00 1.0000e+00
       21  1    1    2  505  502 -1.2873273819e+02 +6.8144397584e+01 -5.9010163835e+01 1.5715589788e+02 0.0000000000e+00 0.0000e+00 1.0000e+00
<mgrwt>
<rscale>  4 0.21379753E+03</rscale>
<asrwt>0</asrwt>
<pdfrwt beam="1">  1       21 0.12219914E+00 0.21379753E+03</pdfrwt>
<pdfrwt beam="2">  1       21 0.34974998E-01 0.21379753E+03</pdfrwt>
<totfact> 0.39096759E+03</totfact>
</mgrwt>
</event>
<event>
 6      1 +2.5168241e+02 2.09457900e+02 7.54677100e-03 1.07064900e-01
       21 -1    0    0  501  502 +0.0000000000e+00 +0.0000000000e+00 +2.6789417382e+02 2.6789417382e+02 0.0000000000e+00 0.0000e+00 1.0000e+00
       21 -1    0    0  504  503 -0.0000000000e+00 -0.0000000000e+00 -3.2740308809e+02 3.2740308809e+02 0.0000000000e+00 0.0000e+00 1.0000e+00
        6  1    1    2  501    0 -9.8801511698e+01 +1.3919048186e+02 -2.1742812606e+01 2.4400303042e+02 1.7300000000e+02 0.0000e+00 1.0000e+00
       -6  1    1    2    0  503 +8.9456100442e+01 -3.6582731220e+01 -9.8972103552e+01 2.2150658548e+02 1.7300000000e+02 0.0000e+00 1.0000e+00
       21  1    1    2  504  505 +2.9952566425e+01 -5.8300908832e+01 +3.6752778925e+01 7.5145984356e+01 0.0000000000e+00 0.0000e+00 1.0000e+00
       21  1    1    2  505  502 -2.0607155169e+01 -4.4306841806e+01 +2.4453222969e+01 5.4641661657e+01 0.0000000000e+00 0.0000e+00 1.0000e+00
<mgrwt>
<rscale>  4 0.20945792E+03</rscale>
<asrwt>0</asrwt>
<pdfrwt beam="1">  1       21 0.41214489E-01 0.20945792E+03</pdfrwt>
<pdfrwt beam="2">  1       21 0.50369706E-01 0.20945792E+03</pdfrwt>
<totfact> 0.21064530E+04</totfact>
</mgrwt>
</event>
<event>
 6      1 +2.5168241e+02 2.54219100e+02 7.54677100e-03 1.16820100e-01
       21 -1    0    0  505  502 +0.0000000000e+00 +0.0000000000e+00 +4.2975680282e+02 4.2975680282e+02 0.0000000000e+00 0.0000e+00 1.0000e+00
       21 -1    0    0  502  503 -0.0000000000e+00 -0.0000000000e+00 -8.0274514438e+02 8.0274514438e+02 0.0000000000e+00 0.0000e+00 -1.0000e+00
        6  1    1    2  501    0 -1.6675531288e+02 +2.1970775098e+02 +1.8382597079e+02 3.7389813820e+02 1.7300000000e+02 0.0000e+00 1.0000e+00
       -6  1    1    2    0  503 +1.6180951831e+02 -8.0202938418e+01 -6.0719749430e+02 6.5668305036e+02 1.7300000000e+02 0.0000e+00 -1.0000e+00
       21  1    1    2  504  501 -4.2688409706e+01 -4.2369791833e+00 -1.3434028750e+01 4.4952479846e+01 0.0000000000e+00 0.0000e+00 -1.0000e+00
       21  1    1    2  505  504 +4.7634204272e+01 -1.3526783338e+02 +6.3817210704e+01 1.5696827879e+02 0.0000000000e+00 0.0000e+00 1.0000e+00
<mgrwt>
<rscale>  4 0.25421915E+03</rscale>
<asrwt>0</asrwt>
<pdfrwt beam="1">  1       21 0.66116432E-01 0.25421915E+03</pdfrwt>
<pdfrwt beam="2">  1       21 0.12349925E+00 0.25421915E+03</pdfrwt>
<totfact> 0.97663117E+02</totfact>
</mgrwt>
</event>
<event>
 6      1 +2.5168241e+02 2.63662200e+02 7.54677100e-03 9.87464100e-02
       21 -1    0    0  503  502 +0.0000000000e+00 +0.0000000000e+00 +5.3394876306e+02 5.3394876306e+02 0.0000000000e+00 0.0000e+00 -1.0000e+00
       21 -1    0    0  505  503 -0.0000000000e+00 -0.0000000000e+00 -4.2611826152e+02 4.2611826152e+02 0.0000000000e+00 0.0000e+00 1.0000e+00
        6  1    1    2  501    0 +1.6241780362e+02 +2.6236067739e+01 -2.1024979041e+02 3.1812237983e+02 1.7300000000e+02 0.0000e+00 1.0000e+00
       -6  1    1    2    0  504 -2.0170506588e+02 +4.0184494415e+01 +4.0537553389e+02 4.8637233748e+02 1.7300000000e+02 0.0000e+00 -1.0000e+00
       21  1    1    2  504  502 +5.8906496290e+00 -6.8402076726e+01 -7.5198969052e+00 6.9065857722e+01 0.0000000000e+00 0.0000e+00 1.0000e+00
       21  1    1    2  505  501 +3.3396612636e+01 +1.9815145719e+00 -7.9775345042e+01 8.6506449540e+01 0.0000000000e+00 0.0000e+00 1.0000e+00
<mgrwt>
<rscale>  4 0.26366224E+03</rscale>
<asrwt>0</asrwt>
<pdfrwt beam="1">  1       21 0.82145963E-01 0.26366224E+03</pdfrwt>
<pdfrwt beam="2">  1       21 0.65556656E-01 0.26366224E+03</pdfrwt>
<totfact> 0.26263770E+03</totfact>
</mgrwt>
</event>
<event>
 6      1 +2.5168241e+02 2.11912300e+02 7.54677100e-03 1.17132900e-01
       21 -1    0    0  505  502 +0.0000000000e+00 +0.0000000000e+00 +5.4946335311e+02 5.4946335311e+02 0.0000000000e+00 0.0000e+00 1.0000e+00
       21 -1    0    0  504  503 -0.0000000000e+00 -0.0000000000e+00 -2.6210309005e+02 2.6210309005e+02 0.0000000000e+00 0.0000e+00 1.0000e+00
        6  1    1    2  501    0 +1.4381503451e+02 +3.8551865439e+01 -7.8451073829e+01 2.4135571562e+02 1.7300000000e+02 0.0000e+00 1.0000e+00
       -6  1    1    2    0  502 -2.4564807185e+01 -2.9892323044e+01 +3.3257003022e+02 3.7686709292e+02 1.7300000000e+02 0.0000e+00 1.0000e+00
       21  1    1    2  504  501 -1.7145479189e+01 +2.3954681864e+01 -4.9726764074e+01 5.7797450680e+01 0.0000000000e+00 0.0000e+00 1.0000e+00
       21  1    1    2  505  503 -1.0210474813e+02 -3.2614224259e+01 +8.2968070741e+01 1.3554618393e+02 0.0000000000e+00 0.0000e+00 1.0000e+00
<mgrwt>
<rscale>  4 0.21191232E+03</rscale>
<asrwt>0</asrwt>
<pdfrwt beam="1">  1       21 0.84532823E-01 0.21191232E+03</pdfrwt>
<pdfrwt beam="2">  1       21 0.40323552E-01 0.21191232E+03</pdfrwt>
<totfact> 0.70912735E+03</totfact>
</mgrwt>
</event>
<event>
 6      1 +2.5168241e+02 2.37618500e+02 7.54677100e-03 1.11671100e-01
       21 -1    0    0  503  502 +0.0000000000e+00 +0.0000000000e+00 +1.5111019044e+03 1.5111019044e+03 0.0000000000e+00 0.0000e+00 -1.0000e+00
       21 -1    0    0  501  503 -0.0000000000e+00 -0.0000000000e+00 -7.2493488618e+02 7.2493488618e+02 0.0000000000e+00 0.0000e+00 1.0000e+00
        6  1    1    2  501    0 +9.8659538974e+01 -1.9091986262e+02 -1.7840699777e+02 3.2854551500e+02 1.7300000000e+02 0.0000e+00 -1.0000e+00
       -6  1    1    2    0  504 -1.8240140823e+02 -1.6831261560e+01 -3.2203188170e+02 4.0888518917e+02 1.7300000000e+02 0.0000e+00 1.0000e+00
       21  1    1    2  504  505 +5.5554336177e+01 +2.0252094212e+02 -1.6721627526e+00 2.1000907693e+02 0.0000000000e+00 0.0000e+00 -1.0000e+00
       21  1    1    2  505  502 +2.8187533079e+01 +5.2301820590e+00 +1.2882780605e+03 1.2885970095e+03 0.0000000000e+00 0.0000e+00 -1.0000e+00
<mgrwt>
<rscale>  4 0.23761852E+03</rscale>
<asrwt>0</asrwt>
<pdfrwt beam="1">  1       21 0.23247722E+00 0.23761852E+03</pdfrwt>
<pdfrwt beam="2">  1       21 0.11152844E+00 0.23761852E+03</pdfrwt>
<totfact> 0.49990732E+01</totfact>
</mgrwt>
</event>
<event>
 6      1 +2.5168241e+02 1.80638200e+02 7.54677100e-03 1.15942100e-01
       21 -1    0    0  504  502 +0.0000000000e+00 +0.0000000000e+00 +6.8992634731e+01 6.8992634731e+01 0.0000000000e+00 0.0000e+00 -1.0000e+00
       21 -1    0    0  501  503 -0.0000000000e+00 -0.0000000000e+00 -1.1598408070e+03 1.1598408070e+03 0.0000000000e+00 0.0000e+00 -1.0000e+00
        6  1    1    2  501    0 +3.8138995309e+00 +3.8707774094e+01 -2.1307509338e+02 2.7720539862e+02 1.7300000000e+02 0.0000e+00 1.0000e+00
       -6  1    1    2    0  502 -1.1187875064e+02 +3.5695876071e+00 -3.3621431180e+02 3.9433318433e+02 1.7300000000e+02 0.0000e+00 -1.0000e+00
       21  1    1    2  504  505 +6.7157086803e+01 -4.5685428350e+01 -2.5007652370e+02 2.6293630479e+02 0.0000000000e+00 0.0000e+00 -1.0000e+00
       21  1    1    2  505  503 +4.0907764306e+01 +3.4080666490e+00 -2.9148224335e+02 2.9435855396e+02 0.0000000000e+00 0.0000e+00 -1.0000e+00
<mgrwt>
<rscale>  4 0.18063824E+03</rscale>
<asrwt>0</asrwt>
<pdfrwt beam="1">  1       21 0.10614252E-01 0.18063824E+03</pdfrwt>
<pdfrwt beam="2">  1       21 0.17843703E+00 0.18063824E+03</pdfrwt>
<totfact> 0.13744114E+04</totfact>
</mgrwt>
</event>
<event>
 6      1 +2.5168241e+02 2.48490100e+02 7.54677100e-03 1.16820100e-01
       21 -1    0    0  505  502 +0.0000000000e+00 +0.0000000000e+00 +1.2394810027e+03 1.2394810027e+03 0.0000000000e+00 0.0000e+00 1.0000e+00
       21 -1    0    0  501  503 -0.0000000000e+00 -0.0000000000e+00 -2.5286230146e+02 2.5286230146e+02 0.0000000000e+00 0.0000e+00 -1.0000e+00
        6  1    1    2  501    0 -6.6280052921e+01 -1.5523379571e+02 +2.3545111578e+02 3.3742673971e+02 1.7300000000e+02 0.0000e+00 -1.0000e+00
       -6  1    1    2    0  502 -2.0380727545e+01 +1.9470258950e+02 +7.2922225699e+02 7.7460865765e+02 1.7300000000e+02 0.0000e+00 1.0000e+00
       21  1    1    2  504  503 +1.2398852660e+01 -2.1526094734e+01 -1.7099616073e+02 1.7279117826e+02 0.0000000000e+00 0.0000e+00 -1.0000e+00
       21  1    1    2  505  504 +7.4261927806e+01 -1.7942699058e+01 +1.9294148914e+02 2.0751672849e+02 0.0000000000e+00 0.0000e+00 -1.0000e+00
<mgrwt>
<rscale>  4 0.24849009E+03</rscale>
<asrwt>0</asrwt>
<pdfrwt beam="1">  1       21 0.19068938E+00 0.24849009E+03</pdfrwt>
<pdfrwt beam="2">  1       21 0.38901893E-01 0.24849009E+03</pdfrwt>
<totfact> 0.93011578E+02</totfact>
</mgrwt>
</event>
<event>
 6      1 +2.5168241e+02 1.79510400e+02 7.54677100e-03 1.17132900e-01
       21 -1    0    0  505  502 +0.0000000000e+00 +0.0000000000e+00 +3.4743137732e+02 3.4743137732e+02 0.0000000000e+00 0.0000e+00 -1.0000e+00
       21 -1    0    0  504  503 -0.0000000000e+00 -0.0000000000e+00 -4.7073308341e+02 4.7073308341e+02 0.0000000000e+00 0.0000e+00 1.0000e+00
        6  1    1    2  501    0 +2.9580203599e+01 -1.3505368508e+01 +2.0706515279e+02 2.7177630677e+02 1.7300000000e+02 0.0000e+00 -1.0000e+00
       -6  1    1    2    0  502 -1.3067417932e+02 -6.6785370859e+01 -5.8266503165e+01 2.3422214304e+02 1.7300000000e+02 0.0000e+00 -1.0000e+00
       21  1    1    2  504  501 +5.2116677348e+01 +6.9068143644e+01 -2.3284977303e+02 2.4840606539e+02 0.0000000000e+00 0.0000e+00 1.0000e+00
       21  1    1    2  505  503 +4.8977298371e+01 +1.1222595723e+01 -3.9250582683e+01 6.3759945510e+01 0.0000000000e+00 0.0000e+00 1.0000e+00
<mgrwt>
<rscale>  4 0.17951038E+03</rscale>
<asrwt>0</asrwt>
<pdfrwt beam="1">  1       21 0.53450981E-01 0.17951038E+03</pdfrwt>
<pdfrwt beam="2">  1       21 0.72420474E-01 0.17951038E+03</pdfrwt>
<totfact> 0.57524696E+03</totfact>
</mgrwt>
</event>
<event>
 6      1 +2.5168241e+02 2.07153600e+02 7.54677100e-03 1.15942100e-01
       21 -1    0    0  504  502 +0.0000000000e+00 +0.0000000000e+00 +1.7385250345e+03 1.7385250345e+03 0.0000000000e+00 0.0000e+00 -1.0000e+00
       21 -1    0    0  501  503 -0.0000000000e+00 -0.0000000000e+00 -2.2866292869e+02 2.2866292869e+02 0.0000000000e+00 0.0000e+00 1.0000e+00
        6  1    1    2  501    0 -1.1872809904e+01 +1.1537206779e+02 +1.3079413151e+03 1.3244210665e+03 1.7300000000e+02 0.0000e+00 -1.0000e+00
       -6  1    1    2    0  502 -2.0157388081e+01 -1.0920527470e+02 +3.8632297296e+02 4.3761461556e+02 1.7300000000e+02 0.0000e+00 -1.0000e+00
       21  1    1    2  504  505 +2.9071020982e+01 -3.5394728673e+01 -5.0978079187e+01 6.8532296302e+01 0.0000000000e+00 0.0000e+00 -1.0000e+00
       21  1    1    2  505  503 +2.9591770037e+00 +2.9227935579e+01 -1.3342410311e+02 1.3661998477e+02 0.0000000000e+00 0.0000e+00 1.0000e+00
<mgrwt>
<rscale>  4 0.20715363E+03</rscale>
<asrwt>0</asrwt>
<pdfrwt beam="1">  1       21 0.26746538E+00 0.20715363E+03</pdfrwt>
<pdfrwt beam="2">  1       21 0.35178913E-01 0.20715363E+03</pdfrwt>
<totfact> 0.40170385E+02</totfact>
</mgrwt>
</event>
<event>
 6      1 +2.5168241e+02 2.22172600e+02 7.54677100e-03 1.17132900e-01
       21 -1    0    0  503  502 +0.0000000000e+00 +0.0000000000e+00 +2.1052733479e+02 2.1052733479e+02 0.0000000000e+00 0.0000e+00 1.0000e+00
       21 -1    0    0  504  503 -0.0000000000e+00 -0.0000000000e+00 -5.1872664556e+02 5.1872664556e+02 0.0000000000e+00 0.0000e+00 1.0000e+00
        6  1    1    2  501    0 +1.0506153472e+02 +1.5784108825e+01 -1.6563716939e+02 2.6201476304e+02 1.7300000000e+02 0.0000e+00 -1.0000e+00
       -6  1    1    2    0  505 -1.6892182950e+02 +2.6756643237e+01 -8.0328973168e+01 2.5618791222e+02 1.7300000000e+02 0.0000e+00 -1.0000e+00
       21  1    1    2  504  501 +5.3066218565e+01 -1.1409019692e+01 -1.2715002602e+02 1.3825092549e+02 0.0000000000e+00 0.0000e+00 1.0000e+00
       21  1    1    2  505  502 +1.0794076208e+01 -3.1131732369e+01 +6.4916857807e+01 7.2800379594e+01 0.0000000000e+00 0.0000e+00 1.0000e+00
<mgrwt>
<rscale>  4 0.22217261E+03</rscale>
<asrwt>0</asrwt>
<pdfrwt beam="1">  1       21 0.32388821E-01 0.22217261E+03</pdfrwt>
<pdfrwt beam="2">  1       21 0.79804099E-01 0.22217261E+03</pdfrwt>
<totfact> 0.12446415E+04</totfact>
</mgrwt>
</event>
<event>
 6      1 +2.5168241e+02 2.43037200e+02 7.54677100e-03 1.16820100e-01
       21 -1    0    0  501  502 +0.0000000000e+00 +0.0000000000e+00 +6.8400966824e+02 6.8400966824e+02 0.0000000000e+00 0.0000e+00 1.0000e+00
       21 -1    0    0  504  503 -0.0000000000e+00 -0.0000000000e+00 -2.6291585431e+02 2.6291585431e+02 0.0000000000e+00 0.0000e+00 -1.0000e+00
        6  1    1    2  501    0 -1.7074989414e+02 +1.5194108657e+02 +2.2332524043e+02 3.6337966805e+02 1.7300000000e+02 0.0000e+00 -1.0000e+00
       -6  1    1    2    0  503 +6.0620974838e+01 -1.3367828786e+02 +2.6789812748e+01 2.2845454975e+02 1.7300000000e+02 0.0000e+00 -1.0000e+00
       21  1    1    2  504  505 +2.3937823986e+01 +8.1494029202e+00 -8.2379547790e+01 8.6173209754e+01 0.0000000000e+00 0.0000e+00 -1.0000e+00
       21  1    1    2  505  502 +8.6191095318e+01 -2.6412201634e+01 +2.5335830855e+02 2.6891809500e+02 0.0000000000e+00 0.0000e+00 1.0000e+00
<mgrwt>
<rscale>  4 0.24303715E+03</rscale>
<asrwt>0</asrwt>
<pdfrwt beam="1">  1       21 0.10523226E+00 0.24303715E+03</pdfrwt>
<pdfrwt beam="2">  1       21 0.40448593E-01 0.24303715E+03</pdfrwt>
<totfact> 0.41212606E+03</totfact>
</mgrwt>
</event>
<event>
 6      1 +2.5168241e+02 2.70118700e+02 7.54677100e-03 1.16820100e-01
       21 -1    0    0  505  502 +0.0000000000e+00 +0.0000000000e+00 +1.9457844488e+03 1.9457844488e+03 0.0000000000e+00 0.0000e+00 1.0000e+00
       21 -1    0    0  501  503 -0.0000000000e+00 -0.0000000000e+00 -6.2329464515e+01 6.2329464515e+01 0.0000000000e+00 0.0000e+00 -1.0000e+00
        6  1    1    2  501    0 +2.1330265977e+02 -6.4829910743e+01 +6.7843622126e+02 7.3478272183e+02 1.7300000000e+02 0.0000e+00 1.0000e+00
       -6  1    1    2    0  502 -1.8669821075e+02 +4.4822428826e+01 +7.1504864751e+02 7.6032153747e+02 1.7300000000e+02 0.0000e+00 -1.0000e+00
       21  1    1    2  504  503 +7.4704499222e-03 +2.9599799695e+01 +8.6205107900e+00 3.0829554068e+01 0.0000000000e+00 0.0000e+00 -1.0000e+00
       21  1    1    2  505  504 -2.6611919470e+01 -9.5923177777e+00 +4.8134960472e+02 4.8218009994e+02 0.0000000000e+00 0.0000e+00 1.0000e+00
<mgrwt>
<rscale>  4 0.27011873E+03</rscale>
<asrwt>0</asrwt>
<pdfrwt beam="1">  1       21 0.29935141E+00 0.27011873E+03</pdfrwt>
<pdfrwt beam="2">  1       21 0.95891499E-02 0.27011873E+03</pdfrwt>
<totfact> 0.27767671E+03</totfact>
</mgrwt>
</event>
<event>
 6      1 +2.5168241e+02 1.82854700e+02 7.54677100e-03 1.17132900e-01
       21 -1    0    0  505  502 +0.0000000000e+00 +0.0000000000e+00 +6.5192897644e+02 6.5192897644e+02 0.0000000000e+00 0.0000e+00 1.0000e+00
       21 -1    0    0  504  503 -0.0000000000e+00 -0.0000000000e+00 -1.1168846127e+02 1.1168846127e+02 0.0000000000e+00 0.0000e+00 -1.0000e+00
        6  1    1    2  501    0 +1.8016262371e+01 +2.6580202914e+01 +3.2637507256e+02 3.7078400840e+02 1.7300000000e+02 0.0000e+00 1.0000e+00
       -6  1    1    2    0  502 -2.5577566084e+01 -1.2363377388e+02 +1.6873224454e+02 2.7265196181e+02 1.7300000000e+02 0.0000e+00 1.0000e+00
       21  1    1    2  504  501 +6.1483573271e+00 +3.2420331635e+01 -1.0773233164e+01 3.4712285346e+01 0.0000000000e+00 0.0000e+00 -1.0000e+00
       21  1    1    2  505  503 +1.4129463857e+00 +6.4633239334e+01 +5.5906431233e+01 8.5469182151e+01 0.0000000000e+00 0.0000e+00 -1.0000e+00
<mgrwt>
<rscale>  4 0.18285466E+03</rscale>
<asrwt>0</asrwt>
<pdfrwt beam="1">  1       21 0.10029676E+00 0.18285466E+03</pdfrwt>
<pdfrwt beam="2">  1       21 0.17182841E-01 0.18285466E+03</pdfrwt>
<totfact> 0.25079838E+04</totfact>
</mgrwt>
</event>
<event>
 6      1 +2.5168241e+02 5.89758700e+02 7.54677100e-03 1.09842800e-01
       21 -1    0    0  504  502 +0.0000000000e+00 +0.0000000000e+00 +5.3523131216e+02 5.3523131216e+02 0.0000000000e+00 0.0000e+00 -1.0000e+00
       21 -1    0    0  505  503 -0.0000000000e+00 -0.0000000000e+00 -1.1483113841e+03 1.1483113841e+03 0.0000000000e+00 0.0000e+00 1.0000e+00
        6  1    1    2  501    0 +3.8959577562e-01 -2.0523197986e+02 -9.7008152007e+01 2.8541180582e+02 1.7300000000e+02 0.0000e+00 -1.0000e+00
       -6  1    1    2    0  503 +1.7311521723e+01 -1.3817675930e+02 -1.8740060268e+02 2.9058646128e+02 1.7300000000e+02 0.0000e+00 -1.0000e+00
       21  1    1    2  504  501 +2.8196344294e+02 -2.1117330594e+02 +7.3435958678e+01 3.5984772936e+02 0.0000000000e+00 0.0000e+00 -1.0000e+00
       21  1    1    2  505  502 -2.9966456043e+02 +5.5458204511e+02 -4.0210727592e+02 7.4769669979e+02 0.0000000000e+00 0.0000e+00 1.0000e+00
<mgrwt>
<rscale>  4 0.58975871E+03</rscale>
<asrwt>0</asrwt>
<pdfrwt beam="1">  1       21 0.82343279E-01 0.58975871E+03</pdfrwt>
<pdfrwt beam="2">  1       21 0.17666329E+00 0.58975871E+03</pdfrwt>
<totfact> 0.18847989E+02</totfact>
</mgrwt>
</event>
<event>
 6      1 +2.5168241e+02 1.79086200e+02 7.54677100e-03 1.17132900e-01
       21 -1    0    0  505  502 +0.0000000000e+00 +0.0000000000e+00 +3.3396531131e+02 3.3396531131e+02 0.0000000000e+00 0.0000e+00 -1.0000e+00
       21 -1    0    0  504  503 -0.0000000000e+00 -0.0000000000e+00 -3.1067889886e+02 3.1067889886e+02 0.0000000000e+00 0.0000e+00 -1.0000e+00
        6  1    1    2  501    0 -2.6952748559e+01 +2.2707822905e+01 -6.7528334687e+01 1.8902690777e+02 1.7300000000e+02 0.0000e+00 -1.0000e+00
       -6  1    1    2    0  502 +1.0110219668e+02 -1.5225565178e+01 +1.3015609509e+02 2.3942239055e+02 1.7300000000e+02 0.0000e+00 -1.0000e+00
       21  1    1    2  504  501 +6.4591391387e-01 -2.3994846245e+01 -1.0963527677e+02 1.1223218684e+02 0.0000000000e+00 0.0000e+00 -1.0000e+00
       21  1    1    2  505  503 -7.4795362035e+01 +1.6512588519e+01 +7.0293928810e+01 1.0396272500e+02 0.0000000000e+00 0.0000e+00 -1.0000e+00
<mgrwt>
<rscale>  4 0.17908617E+03</rscale>
<asrwt>0</asrwt>
<pdfrwt beam="1">  1       21 0.51379278E-01 0.17908617E+03</pdfrwt>
<pdfrwt beam="2">  1       21 0.47796754E-01 0.17908617E+03</pdfrwt>
<totfact> 0.15194078E+04</totfact>
</mgrwt>
</event>
<event>
 6      1 +2.5168241e+02 5.59853600e+02 7.54677100e-03 1.16820100e-01
       21 -1    0    0  501  502 +0.0000000000e+00 +0.0000000000e+00 +9.1227746550e+02 9.1227746550e+02 0.0000000000e+00 0.0000e+00 -1.0000e+00
       21 -1    0    0  504  503 -0.0000000000e+00 -0.0000000000e+00 -9.7974050818e+02 9.7974050818e+02 0.0000000000e+00 0.0000e+00 1.0000e+00
        6  1    1    2  501    0 +7.2150642641e+01 +5.7507999367e+02 +6.0567384739e+02 8.5597460463e+02 1.7300000000e+02 0.0000e+00 -1.0000e+00
       -6  1    1    2    0  503 +1.0692202788e+01 -5.1724558825e+02 -7.0804924038e+02 8.9382327592e+02 1.7300000000e+02 0.0000e+00 1.0000e+00
       21  1    1    2  504  505 -1.7866339133e+01 -1.1156590537e+01 -3.1736996334e+01 3.8090845655e+01 0.0000000000e+00 0.0000e+00 1.0000e+00
       21  1    1    2  505  502 -6.4976506296e+01 -4.6677814884e+01 +6.6649346644e+01 1.0412924748e+02 0.0000000000e+00 0.0000e+00 1.0000e+00
<mgrwt>
<rscale>  4 0.55985365E+03</rscale>
<asrwt>0</asrwt>
<pdfrwt beam="1">  1       21 0.14035038E+00 0.55985365E+03</pdfrwt>
<pdfrwt beam="2">  1       21 0.15072931E+00 0.55985365E+03</pdfrwt>
<totfact> 0.79181874E+01</totfact>
</mgrwt>
</event>
<event>
 6      1 +2.5168241e+02 1.82653700e+02 7.54677100e-03 1.16820100e-01
       21 -1    0    0  505  502 +0.0000000000e+00 +0.0000000000e+00 +1.7088566784e+02 1.7088566784e+02 0.0000000000e+00 0.0000e+00 1.0000e+00
       21 -1    0    0  504  503 -0.0000000000e+00 -0.0000000000e+00 -4.4128700958e+02 4.4128700958e+02 0.0000000000e+00 0.0000e+00 -1.0000e+00
        6  1    1    2  501    0 -3.3122452817e+01 +4.3885998909e+01 -1.5784760751e+02 2.4055757103e+02 1.7300000000e+02 0.0000e+00 -1.0000e+00
       -6  1    1    2    0  503 +4.8685393037e+01 -4.1397421307e+01 -1.5664477392e+02 2.4197231078e+02 1.7300000000e+02 0.0000e+00 -1.0000e+00
       21  1    1    2  504  502 -6.4005885949e+00 -2.9228193416e+01 -3.4768547734e+01 4.5870543230e+01 0.0000000000e+00 0.0000e+00 -1.0000e+00
       21  1    1    2  505  501 -9.1623516252e+00 +2.6739615814e+01 +7.8859587426e+01 8.3772252388e+01 0.0000000000e+00 0.0000e+00 1.0000e+00
<mgrwt>
<rscale>  4 0.18265367E+03</rscale>
<asrwt>0</asrwt>
<pdfrwt beam="1">  1       21 0.26290103E-01 0.18265367E+03</pdfrwt>
<pdfrwt beam="2">  1       21 0.67890309E-01 0.18265367E+03</pdfrwt>
<totfact> 0.27414466E+04</totfact>
</mgrwt>
</event>
<event>
 6      1 +2.5168241e+02 4.24624800e+02 7.54677100e-03 1.15942100e-01
       21 -1    0    0  504  502 +0.0000000000e+00 +0.0000000000e+00 +1.0958532417e+03 1.0958532417e+03 0.0000000000e+00 0.0000e+00 -1.0000e+00
       21 -1    0    0  501  503 -0.0000000000e+00 -0.0000000000e+00 -2.7244330378e+02 2.7244330378e+02 0.0000000000e+00 0.0000e+00 1.0000e+00
        6  1    1    2  501    0 +8.8107859785e+01 +4.0027652176e+02 +6.2102260560e+02 7.6392562825e+02 1.7300000000e+02 0.0000e+00 -1.0000e+00
       -6  1    1    2    0  502 -4.9391853157e+01 -3.5305414808e+02 +2.7592239276e+02 4.8285500252e+02 1.7300000000e+02 0.0000e+00 -1.0000e+00
       21  1    1    2  504  505 -4.9783037781e+01 -2.3953899695e+01 -1.4521828125e+01 5.7122882047e+01 0.0000000000e+00 0.0000e+00 1.0000e+00
       21  1    1    2  505  503 +1.1067031153e+01 -2.3268473989e+01 -5.9013232350e+01 6.4393032641e+01 0.0000000000e+00 0.0000e+00 1.0000e+00
<mgrwt>
<rscale>  4 0.42462481E+03</rscale>
<asrwt>0</asrwt>
<pdfrwt beam="1">  1       21 0.16859280E+00 0.42462481E+03</pdfrwt>
<pdfrwt beam="2">  1       21 0.41914355E-01 0.42462481E+03</pdfrwt>
<totfact> 0.10179961E+03</totfact>
</mgrwt>
</event>
<event>
 6      1 +2.5168241e+02 3.43229000e+02 7.54677100e-03 1.07240600e-01
       21 -1    0    0  505  502 +0.0000000000e+00 +0.0000000000e+00 +1.0645293531e+03 1.0645293531e+03 0.0000000000e+00 0.0000e+00 1.0000e+00
       21 -1    0    0  504  503 -0.0000000000e+00 -0.0000000000e+00 -1.2295377148e+03 1.2295377148e+03 0.0000000000e+00 0.0000e+00 1.0000e+00
        6  1    1    2  501    0 -4.7413510512e+01 -2.1247878262e+02 -2.5338893713e+02 3.7620503386e+02 1.7300000000e+02 0.0000e+00 -1.0000e+00
       -6  1    1    2    0  502 +1.9505600236e+02 +2.3643780440e+02 +9.5395807336e+02 1.0168159544e+03 1.7300000000e+02 0.0000e+00 1.0000e+00
       21  1    1    2  504  501 +2.0179571566e+01 -6.1810259200e+00 -2.0747440989e+00 2.1206714812e+01 0.0000000000e+00 0.0000e+00 -1.0000e+00
       21  1    1    2  505  503 -1.6782206341e+02 -1.7777995858e+01 -8.6350275379e+02 8.7983936483e+02 0.0000000000e+00 0.0000e+00 1.0000e+00
<mgrwt>
<rscale>  4 0.34322901E+03</rscale>
<asrwt>0</asrwt>
<pdfrwt beam="1">  1       21 0.16377375E+00 0.34322901E+03</pdfrwt>
<pdfrwt beam="2">  1       21 0.18915965E+00 0.34322901E+03</pdfrwt>
<totfact> 0.31190167E+01</totfact>
</mgrwt>
</event>
<event>
 6      1 +2.5168241e+02 3.14728600e+02 7.54677100e-03 1.11471900e-01
       21 -1    0    0  503  502 +0.0000000000e+00 +0.0000000000e+00 +1.1530575886e+03 1.1530575886e+03 0.0000000000e+00 0.0000e+00 1.0000e+00
       21 -1    0    0  501  503 -0.0000000000e+00 -0.0000000000e+00 -5.0972980395e+02 5.0972980395e+02 0.0000000000e+00 0.0000e+00 1.0000e+00
        6  1    1    2  501    0 -1.2619217955e+02 -1.0918744234e+02 +3.2471384276e+02 4.0399807354e+02 1.7300000000e+02 0.0000e+00 1.0000e+00
       -6  1    1    2    0  504 +1.9796738336e+02 -1.7443981441e+02 -2.8010305661e+02 4.2190882433e+02 1.7300000000e+02 0.0000e+00 1.0000e+00
       21  1    1    2  504  505 -5.5333358284e+01 +3.0318536426e+02 +8.1170020970e+01 3.1870318158e+02 0.0000000000e+00 0.0000e+00 1.0000e+00
       21  1    1    2  505  502 -1.6441845531e+01 -1.9558107508e+01 +5.1754697748e+02 5.1817731305e+02 0.0000000000e+00 0.0000e+00 1.0000e+00
<mgrwt>
<rscale>  4 0.29731354E+03</rscale>
<asrwt>0</asrwt>
<pdfrwt beam="1">  1       21 0.17739348E+00 0.31472857E+03</pdfrwt>
<pdfrwt beam="2">  1       21 0.78419970E-01 0.31472857E+03</pdfrwt>
<totfact> 0.24179455E+02</totfact>
</mgrwt>
</event>
<event>
 6      1 +2.5168241e+02 4.20399900e+02 7.54677100e-03 1.15942100e-01
       21 -1    0    0  504  502 +0.0000000000e+00 +0.0000000000e+00 +5.9254707839e+02 5.9254707839e+02 0.0000000000e+00 0.0000e+00 1.0000e+00
       21 -1    0    0  501  503 -0.0000000000e+00 -0.0000000000e+00 -1.0692992479e+03 1.0692992479e+03 0.0000000000e+00 0.0000e+00 -1.0000e+00
        6  1    1    2  501    0 -1.5859384888e+01 -3.8269031739e+02 +1.6690134466e+02 4.5220400039e+02 1.7300000000e+02 0.0000e+00 -1.0000e+00
       -6  1    1    2    0  502 +2.3359015626e+02 +3.4725901636e+02 +6.4073237975e+01 4.5737027163e+02 1.7300000000e+02 0.0000e+00 1.0000e+00
       21  1    1    2  504  505 -1.6039222320e+02 +6.1580513675e+01 -3.6018378614e+02 3.9906163023e+02 0.0000000000e+00 0.0000e+00 -1.0000e+00
       21  1    1    2  505  503 -5.7338548174e+01 -2.6149212641e+01 -3.4754296603e+02 3.5321042406e+02 0.0000000000e+00 0.0000e+00 -1.0000e+00
<mgrwt>
<rscale>  4 0.42039992E+03</rscale>
<asrwt>0</asrwt>
<pdfrwt beam="1">  1       21 0.91161090E-01 0.42039992E+03</pdfrwt>
<pdfrwt beam="2">  1       21 0.16450757E+00 0.42039992E+03</pdfrwt>
<totfact> 0.19687581E+02</totfact>
</mgrwt>
</event>
<event>
 6      1 +2.5168241e+02 3.57771900e+02 7.54677100e-03 1.09842800e-01
       21 -1    0    0  505  502 +0.0000000000e+00 +0.0000000000e+00 +8.9008085974e+02 8.9008085974e+02 0.0000000000e+00 0.0000e+00 1.0000e+00
       21 -1    0    0  504  503 -0.0000000000e+00 -0.0000000000e+00 -1.0007413800e+03 1.0007413800e+03 0.0000000000e+00 0.0000e+00 -1.0000e+00
        6  1    1    2  501    0 -1.6527034513e+02 -1.2611942814e+01 -4.3675075422e+02 4.9815014744e+02 1.7300000000e+02 0.0000e+00 -1.0000e+00
       -6  1    1    2    0  502 -1.1416252657e+02 +9.1866881332e+01 -1.0851043966e+02 2.5134860627e+02 1.7300000000e+02 0.0000e+00 -1.0000e+00
       21  1    1    2  504  501 +4.5816481694e+01 -3.6900251189e+02 -1.8745969345e+02 4.1641702708e+02 0.0000000000e+00 0.0000e+00 -1.0000e+00
       21  1    1    2  505  503 +2.3361639001e+02 +2.8974757337e+02 +6.2206036706e+02 7.2490645895e+02 0.0000000000e+00 0.0000e+00 1.0000e+00
<mgrwt>
<rscale>  4 0.31921022E+03</rscale>
<asrwt>0</asrwt>
<pdfrwt beam="1">  1       21 0.13693552E+00 0.35777193E+03</pdfrwt>
<pdfrwt beam="2">  1       21 0.15396021E+00 0.35777193E+03</pdfrwt>
<totfact> 0.89506601E+01</totfact>
</mgrwt>
</event>
<event>
 6      1 +2.5168241e+02 2.74005500e+02 7.54677100e-03 1.12989000e-01
       21 -1    0    0  505  502 +0.0000000000e+00 +0.0000000000e+00 +8.6917057174e+02 8.6917057174e+02 0.0000000000e+00 0.0000e+00 1.0000e+00
       21 -1    0    0  504  503 -0.0000000000e+00 -0.0000000000e+00 -1.1633017011e+02 1.1633017011e+02 0.0000000000e+00 0.0000e+00 -1.0000e+00
        6  1    1    2  501    0 +1.8196961358e+02 -9.6283403518e+01 +3.9378522493e+02 4.7684299033e+02 1.7300000000e+02 0.0000e+00 -1.0000e+00
       -6  1    1    2    0  502 -2.1825487636e+02 +5.2088389788e+01 +3.4267016713e+02 4.4463494559e+02 1.7300000000e+02 0.0000e+00 1.0000e+00
       21  1    1    2  504  501 +1.3751570608e+01 +3.2635277813e+01 +1.5564898526e+01 3.8683757809e+01 0.0000000000e+00 0.0000e+00 -1.0000e+00
       21  1    1    2  505  503 +2.2533692173e+01 +1.1559735917e+01 +8.2011105109e-01 2.5339048118e+01 0.0000000000e+00 0.0000e+00 -1.0000e+00
<mgrwt>
<rscale>  4 0.27400554E+03</rscale>
<asrwt>0</asrwt>
<pdfrwt beam="1">  1       21 0.13371855E+00 0.27400554E+03</pdfrwt>
<pdfrwt beam="2">  1       21 0.17896950E-01 0.27400554E+03</pdfrwt>
<totfact> 0.10854497E+04</totfact>
</mgrwt>
</event>
<event>
 6      1 +2.5168241e+02 2.24765700e+02 7.54677100e-03 1.17132900e-01
       21 -1    0    0  503  502 +0.0000000000e+00 +0.0000000000e+00 +7.9820911264e+02 7.9820911264e+02 0.0000000000e+00 0.0000e+00 -1.0000e+00
       21 -1    0    0  504  503 -0.0000000000e+00 -0.0000000000e+00 -2.2521203504e+02 2.2521203504e+02 0.0000000000e+00 0.0000e+00 -1.0000e+00
        6  1    1    2  501    0 -1.5529053673e+01 +1.4391971456e+02 +6.2037248965e+01 2.3394797713e+02 1.7300000000e+02 0.0000e+00 -1.0000e+00
       -6  1    1    2    0  505 -1.2052481629e+02 -1.1706142253e+02 +2.7027136036e+02 3.6222260589e+02 1.7300000000e+02 0.0000e+00 -1.0000e+00
       21  1    1    2  504  501 -1.3292489413e+01 +2.2438598734e+01 -7.2360064549e+01 7.6916577728e+01 0.0000000000e+00 0.0000e+00 1.0000e+00
       21  1    1    2  505  502 +1.4934635937e+02 -4.9296890759e+01 +3.1304853282e+02 3.5033398693e+02 0.0000000000e+00 0.0000e+00 -1.0000e+00
<mgrwt>
<rscale>  4 0.22476572E+03</rscale>
<asrwt>0</asrwt>
<pdfrwt beam="1">  1       21 0.12280140E+00 0.22476572E+03</pdfrwt>
<pdfrwt beam="2">  1       21 0.34648006E-01 0.22476572E+03</pdfrwt>
<totfact> 0.39017051E+03</totfact>
</mgrwt>
</event>
<event>
 6      1 +2.5168241e+02 3.33114200e+02 7.54677100e-03 1.15942100e-01
       21 -1    0    0  504  502 +0.0000000000e+00 +0.0000000000e+00 +1.3278536489e+03 1.3278536489e+03 0.0000000000e+00 0.0000e+00 1.0000e+00
       21 -1    0    0  501  503 -0.0000000000e+00 -0.0000000000e+00 -1.1119226114e+03 1.1119226114e+03 0.0000000000e+00 0.0000e+00 1.0000e+00
        6  1    1    2  501    0 +2.4343973561e+01 -3.1405585728e+02 +8.1290645600e+02 8.8880234965e+02 1.7300000000e+02 0.0000e+00 1.0000e+00
       -6  1    1    2    0  502 -1.1293108163e+01 +2.9489356911e+01 +4.0060490963e+02 4.3750480007e+02 1.7300000000e+02 0.0000e+00 1.0000e+00
       21  1    1    2  504  505 +1.1408586976e+02 +2.6827983249e+02 -3.6052069214e+02 4.6364299161e+02 0.0000000000e+00 0.0000e+00 1.0000e+00
       21  1    1    2  505  503 -1.2713673515e+02 +1.6286667878e+01 -6.3705963599e+02 6.4982611888e+02 0.0000000000e+00 0.0000e+00 1.0000e+00
<mgrwt>
<rscale>  4 0.28414783E+03</rscale>
<asrwt>0</asrwt>
<pdfrwt beam="1">  1       21 0.20428518E+00 0.33311417E+03</pdfrwt>
<pdfrwt beam="2">  1       21 0.17106502E+00 0.33311417E+03</pdfrwt>
<totfact> 0.22108617E+01</totfact>
</mgrwt>
</event>
<event>
 6      1 +2.5168241e+02 1.94761100e+02 7.54677100e-03 1.12989000e-01
       21 -1    0    0  505  502 +0.0000000000e+00 +0.0000000000e+00 +1.0083049131e+02 1.0083049131e+02 0.0000000000e+00 0.0000e+00 1.0000e+00
       21 -1    0    0  504  503 -0.0000000000e+00 -0.0000000000e+00 -6.6876192714e+02 6.6876192714e+02 0.0000000000e+00 0.0000e+00 1.0000e+00
        6  1    1    2  501    0 +1.5731976034e+01 -2.1209843621e+01 -3.0279621909e+02 3.4973118653e+02 1.7300000000e+02 0.0000e+00 1.0000e+00
       -6  1    1    2    0  502 -8.0741132060e+01 +9.9411967194e+01 -1.4172940361e+02 2.5771708029e+02 1.7300000000e+02 0.0000e+00 1.0000e+00
       21  1    1    2  504  501 +4.6131087559e+01 -6.8650159308e+01 -1.0769974939e+02 1.3579454198e+02 0.0000000000e+00 0.0000e+00 1.0000e+00
       21  1    1    2  505  503 +1.8878068467e+01 -9.5519642653e+00 -1.5706063734e+01 2.6349609644e+01 0.0000000000e+00 0.0000e+00 -1.0000e+00
<mgrwt>
<rscale>  4 0.19476109E+03</rscale>
<asrwt>0</asrwt>
<pdfrwt beam="1">  1       21 0.15512383E-01 0.19476109E+03</pdfrwt>
<pdfrwt beam="2">  1       21 0.10288645E+00 0.19476109E+03</pdfrwt>
<totfact> 0.28270672E+04</totfact>
</mgrwt>
</event>
<event>
 6      1 +2.5168241e+02 1.95449700e+02 7.54677100e-03 1.06249800e-01
       21 -1    0    0  503  502 +0.0000000000e+00 +0.0000000000e+00 +1.0223465473e+03 1.0223465473e+03 0.0000000000e+00 0.0000e+00 1.0000e+00
       21 -1    0    0  501  503 -0.0000000000e+00 -0.0000000000e+00 -1.2559201137e+02 1.2559201137e+02 0.0000000000e+00 0.0000e+00 1.0000e+00
        6  1    1    2  501    0 +8.6041580755e+00 +9.3782670992e+01 -1.1161109241e+01 1.9728859895e+02 1.7300000000e+02 0.0000e+00 1.0000e+00
       -6  1    1    2    0  504 -5.0493383771e+01 -6.8246917704e+01 +4.6025857522e+02 4.9897312518e+02 1.7300000000e+02 0.0000e+00 1.0000e+00
       21  1    1    2  504  505 +2.9774227738e+01 +1.6094109685e+00 +2.5551672073e+02 2.5725063540e+02 0.0000000000e+00 0.0000e+00 -1.0000e+00
       21  1    1    2  505  502 +1.2114997957e+01 -2.7145164257e+01 +1.9214034925e+02 1.9442619918e+02 0.0000000000e+00 0.0000e+00 1.0000e+00
<mgrwt>
<rscale>  4 0.19544969E+03</rscale>
<asrwt>0</asrwt>
<pdfrwt beam="1">  1       21 0.15728408E+00 0.19544969E+03</pdfrwt>
<pdfrwt beam="2">  1       21 0.19321849E-01 0.19544969E+03</pdfrwt>
<totfact> 0.64731623E+03</totfact>
</mgrwt>
</event>
<event>
 6      1 +2.5168241e+02 1.78241000e+02 7.54677100e-03 1.11910500e-01
       21 -1    0    0  501  502 +0.0000000000e+00 +0.0000000000e+00 +6.2018779629e+02 6.2018779629e+02 0.0000000000e+00 0.0000e+00 -1.0000e+00
       21 -1    0    0  505  503 -0.0000000000e+00 -0.0000000000e+00 -2.3537993194e+02 2.3537993194e+02 0.0000000000e+00 0.0000e+00 -1.0000e+00
        6  1    1    2  501    0 +1.0424365483e+01 -2.4420556478e+01 +1.6121760846e+02 2.3796039219e+02 1.7300000000e+02 0.0000e+00 1.0000e+00
       -6  1    1    2    0  504 -3.3440391068e+01 +4.0751761780e+01 +3.5126818579e+02 3.9509151369e+02 1.7300000000e+02 0.0000e+00 -1.0000e+00
       21  1    1    2  504  503 -6.0416460666e+00 +7.2232736933e+01 -1.0326018725e+02 1.2616154740e+02 0.0000000000e+00 0.0000e+00 -1.0000e+00
       21  1    1    2  505  502 +2.9057671652e+01 -8.8563942235e+01 -2.4417742647e+01 9.6354274955e+01 0.0000000000e+00 0.0000e+00 -1.0000e+00
<mgrwt>
<rscale>  4 0.17824103E+03</rscale>
<asrwt>0</asrwt>
<pdfrwt beam="1">  1       21 0.95413507E-01 0.17824103E+03</pdfrwt>
<pdfrwt beam="2">  1       21 0.36212297E-01 0.17824103E+03</pdfrwt>
<totfact> 0.68180732E+03</totfact>
</mgrwt>
</event>
<event>
 6      1 +2.5168241e+02 1.74320000e+02 7.54677100e-03 1.16820100e-01
       21 -1    0    0  505  502 +0.0000000000e+00 +0.0000000000e+00 +2.4924018034e+02 2.4924018034e+02 0.0000000000e+00 0.0000e+00 -1.0000e+00
       21 -1    0    0  504  503 -0.0000000000e+00 -0.0000000000e+00 -2.3130454911e+02 2.3130454911e+02 0.0000000000e+00 0.0000e+00 -1.0000e+00
        6  1    1    2  501    0 -3.6210466833e+01 -2.7757412964e+00 +1.0511945082e+01 1.7708304164e+02 1.7300000000e+02 0.0000e+00 -1.0000e+00
       -6  1    1    2    0  503 +4.7138084363e+00 -2.3447869399e+01 +2.6762790688e+01 1.7668409531e+02 1.7300000000e+02 0.0000e+00 1.0000e+00
       21  1    1    2  504  502 +4.5030190481e+01 +8.7852319874e+00 -6.2952183928e+01 7.7896571279e+01 0.0000000000e+00 0.0000e+00 -1.0000e+00
       21  1    1    2  505  501 -1.3533532084e+01 +1.7438378708e+01 +4.3613079386e+01 4.8881021226e+01 0.0000000000e+00 0.0000e+00 -1.0000e+00
<mgrwt>
<rscale>  4 0.17432004E+03</rscale>
<asrwt>0</asrwt>
<pdfrwt beam="1">  1       21 0.38344643E-01 0.17432004E+03</pdfrwt>
<pdfrwt beam="2">  1       21 0.35585315E-01 0.17432004E+03</pdfrwt>
<totfact> 0.50376021E+04</totfact>
</mgrwt>
</event>
<event>
 6      1 +2.5168241e+02 3.14276500e+02 7.54677100e-03 1.16820100e-01
       21 -1    0    0  505  502 +0.0000000000e+00 +0.0000000000e+00 +1.4725312533e+03 1.4725312533e+03 0.0000000000e+00 0.0000e+00 -1.0000e+00
       21 -1    0    0  504  503 -0.0000000000e+00 -0.0000000000e+00 -9.7575007148e+02 9.7575007148e+02 0.0000000000e+00 0.0000e+00 1.0000e+00
        6  1    1    2  501    0 -1.7742069513e+01 +3.2919380427e+02 +4.5443197449e+02 5.8746979602e+02 1.7300000000e+02 0.0000e+00 -1.0000e+00
       -6  1    1    2    0  503 +8.2924924409e+01 -2.3663326361e+02 -4.5875118653e+02 5.5068457004e+02 1.7300000000e+02 0.0000e+00 1.0000e+00
       21  1    1    2  504  502 -1.7369863144e+01 -1.2665853374e+01 -4.0183201445e+02 4.0240663989e+02 0.0000000000e+00 0.0000e+00 1.0000e+00
       21  1    1    2  505  501 -4.7812991752e+01 -7.9894687285e+01 +9.0293240832e+02 9.0772031884e+02 0.0000000000e+00 0.0000e+00 -1.0000e+00
<mgrwt>
<rscale>  4 0.31427649E+03</rscale>
<asrwt>0</asrwt>
<pdfrwt beam="1">  1       21 0.22654327E+00 0.31427649E+03</pdfrwt>
<pdfrwt beam="2">  1       21 0.15011540E+00 0.31427649E+03</pdfrwt>
<totfact> 0.23300787E+01</totfact>
</mgrwt>
</event>
<event>
 6      1 +2.5168241e+02 3.02549200e+02 7.54677100e-03 1.17132900e-01
       21 -1    0    0  503  502 +0.0000000000e+00 +0.0000000000e+00 +1.7544070565e+03 1.7544070565e+03 0.0000000000e+00 0.0000e+00 1.0000e+00
       21 -1    0    0  504  503 -0.0000000000e+00 -0.0000000000e+00 -1.7356659450e+02 1.7356659450e+02 0.0000000000e+00 0.0000e+00 -1.0000e+00
        6  1    1    2  501    0 -5.8441627666e+01 +2.1668648595e+02 +9.9942129314e+02 1.0388168165e+03 1.7300000000e+02 0.0000e+00 1.0000e+00
       -6  1    1    2    0  505 +1.5488753946e+02 -3.7363324768e+01 +1.9993728350e+02 3.0869092188e+02 1.7300000000e+02 0.0000e+00 -1.0000e+00
       21  1    1    2  504  501 -8.3746775793e+01 -2.2850635669e+02 +5.4285908036e+01 2.4935043075e+02 0.0000000000e+00 0.0000e+00 -1.0000e+00
       21  1    1    2  505  502 -1.2699135998e+01 +4.9183195500e+01 +3.2719597736e+02 3.3111548193e+02 0.0000000000e+00 0.0000e+00 -1.0000e+00
<mgrwt>
<rscale>  4 0.28326049E+03</rscale>
<asrwt>0</asrwt>
<pdfrwt beam="1">  1       21 0.26990877E+00 0.30254920E+03</pdfrwt>
<pdfrwt beam="2">  1       21 0.26702554E-01 0.30254920E+03</pdfrwt>
<totfact> 0.60494190E+02</totfact>
</mgrwt>
</event>
<event>
 6      1 +2.5168241e+02 1.92996900e+02 7.54677100e-03 1.11471900e-01
       21 -1    0    0  503  502 +0.0000000000e+00 +0.0000000000e+00 +8.4336781867e+02 8.4336781867e+02 0.0000000000e+00 0.0000e+00 1.0000e+00
       21 -1    0    0  501  503 -0.0000000000e+00 -0.0000000000e+00 -1.0910055770e+02 1.0910055770e+02 0.0000000000e+00 0.0000e+00 1.0000e+00
        6  1    1    2  501    0 +9.0671755888e+01 -7.9725842463e+00 +6.1336487261e+01 2.0488068256e+02 1.7300000000e+02 0.0000e+00 1.0000e+00
       -6  1    1    2    0  504 -5.4913555365e+01 +8.0204241208e+01 +3.3271330670e+02 3.8739561604e+02 1.7300000000e+02 0.0000e+00 1.0000e+00
       21  1    1    2  504  505 -7.6827310800e+00 -7.3452761708e+01 +1.4263259738e+02 1.6061877348e+02 0.0000000000e+00 0.0000e+00 1.0000e+00
       21  1    1    2  505  502 -2.8075469442e+01 +1.2211047465e+00 +1.9758486963e+02 1.9957330430e+02 0.0000000000e+00 0.0000e+00 1.0000e+00
<mgrwt>
<rscale>  4 0.19299692E+03</rscale>
<asrwt>0</asrwt>
<pdfrwt beam="1">  1       21 0.12974889E+00 0.19299692E+03</pdfrwt>
<pdfrwt beam="2">  1       21 0.16784702E-01 0.19299692E+03</pdfrwt>
<totfact> 0.13869785E+04</totfact>
</mgrwt>
</event>
<event>
 6      1 +2.5168241e+02 3.08504000e+02 7.54677100e-03 1.03924000e-01
       21 -1    0    0  504  502 +0.0000000000e+00 +0.0000000000e+00 +1.2428023652e+03 1.2428023652e+03 0.0000000000e+00 0.0000e+00 1.0000e+00
       21 -1    0    0  501  503 -0.0000000000e+00 -0.0000000000e+00 -3.1191304434e+02 3.1191304434e+02 0.0000000000e+00 0.0000e+00 -1.0000e+00
        6  1    1    2  501    0 -2.2950123962e+02 +2.5087215288e+02 +9.3137630902e+01 3.9269743362e+02 1.7300000000e+02 0.0000e+00 -1.0000e+00
       -6  1    1    2    0  505 +6.4428488441e+01 -2.1101025903e+02 -2.5751443987e+01 2.8154661498e+02 1.7300000000e+02 0.0000e+00 1.0000e+00
       21  1    1    2  504  503 +3.2281019024e+01 +1.4703003762e+00 +1.9438871232e+02 1.9705633065e+02 0.0000000000e+00 0.0000e+00 1.0000e+00
       21  1    1    2  505  502 +1.3279173215e+02 -4.1332194227e+01 +6.6911442157e+02 6.8341503025e+02 0.0000000000e+00 0.0000e+00 1.0000e+00
<mgrwt>
<rscale>  4 0.30850403E+03</rscale>
<asrwt>0</asrwt>
<pdfrwt beam="1">  1       21 0.19120036E+00 0.30850403E+03</pdfrwt>
<pdfrwt beam="2">  1       21 0.47986623E-01 0.30850403E+03</pdfrwt>
<totfact> 0.57089279E+02</totfact>
</mgrwt>
</event>
<event>
 6      1 +2.5168241e+02 3.45098500e+02 7.54677100e-03 1.17132900e-01
       21 -1    0    0  505  502 +0.0000000000e+00 +0.0000000000e+00 +2.4007068856e+02 2.4007068856e+02 0.0000000000e+00 0.0000e+00 1.0000e+00
       21 -1    0    0  504  503 -0.0000000000e+00 -0.0000000000e+00 -7.0584260806e+02 7.0584260806e+02 0.0000000000e+00 0.0000e+00 1.0000e+00
        6  1    1    2  501    0 -1.9007585096e+02 +1.9430640913e+02 -4.9067467012e+01 3.2591475276e+02 1.7300000000e+02 0.0000e+00 1.0000e+00
       -6  1    1    2    0  502 +2.4327611708e+02 -2.1791831136e+02 -3.2593270990e+02 4.9278067226e+02 1.7300000000e+02 0.0000e+00 1.0000e+00
       21  1    1    2  504  501 -2.2472099040e+01 +1.4902449896e+01 -9.1378129906e+01 9.5273505621e+01 0.0000000000e+00 0.0000e+00 -1.0000e+00
       21  1    1    2  505  503 -3.0728167086e+01 +8.7094523283e+00 +6.0638731261e-01 3.1944365981e+01 0.0000000000e+00 0.0000e+00 -1.0000e+00
<mgrwt>
<rscale>  4 0.34509847E+03</rscale>
<asrwt>0</asrwt>
<pdfrwt beam="1">  1       21 0.36933952E-01 0.34509847E+03</pdfrwt>
<pdfrwt beam="2">  1       21 0.10859117E+00 0.34509847E+03</pdfrwt>
<totfact> 0.43405269E+03</totfact>
</mgrwt>
</event>
<event>
 6      1 +2.5168241e+02 3.29474100e+02 7.54677100e-03 1.12989000e-01
       21 -1    0    0  505  502 +0.0000000000e+00 +0.0000000000e+00 +7.0563360204e+02 7.0563360204e+02 0.0000000000e+00 0.0000e+00 -1.0000e+00
       21 -1    0    0  504  503 -0.0000000000e+00 -0.0000000000e+00 -6.3982167589e+02 6.3982167589e+02 0.0000000000e+00 0.0000e+00 1.0000e+00
        6  1    1    2  501    0 -6.2437294167e+01 +7.6242388188e+01 +1.0748371178e+02 2.2625884681e+02 1.7300000000e+02 0.0000e+00 1.0000e+00
       -6  1    1    2    0  502 +1.6549835038e+01 +2.5294169903e+02 +4.2108566615e+02 5.2105233747e+02 1.7300000000e+02 0.0000e+00 -1.0000e+00
       21  1    1    2  504  501 +5.4785037144e+01 -1.1125910502e+02 -3.0415935101e+02 3.2847054594e+02 0.0000000000e+00 0.0000e+00 1.0000e+00
       21  1    1    2  505  503 -8.8975780146e+00 -2.1792498220e+02 -1.5859810077e+02 2.6967354770e+02 0.0000000000e+00 0.0000e+00 1.0000e+00
<mgrwt>
<rscale>  4 0.28680297E+03</rscale>
<asrwt>0</asrwt>
<pdfrwt beam="1">  1       21 0.10855902E+00 0.32947409E+03</pdfrwt>
<pdfrwt beam="2">  1       21 0.98434103E-01 0.32947409E+03</pdfrwt>
<totfact> 0.51232268E+02</totfact>
</mgrwt>
</event>
<event>
 6      1 +2.5168241e+02 1.73224500e+02 7.54677100e-03 1.12989000e-01
       21 -1    0    0  505  502 +0.0000000000e+00 +0.0000000000e+00 +1.5567596788e+02 1.5567596788e+02 0.0000000000e+00 0.0000e+00 1.0000e+00
       21 -1    0    0  504  503 -0.0000000000e+00 -0.0000000000e+00 -8.7372492424e+02 8.7372492424e+02 0.0000000000e+00 0.0000e+00 -1.0000e+00
        6  1    1    2  501    0 -1.4752788257e+00 -6.6240465450e+01 -1.2367250969e+02 2.2274170100e+02 1.7300000000e+02 0.0000e+00 -1.0000e+00
       -6  1    1    2    0  502 -6.5061633901e+00 -1.7277018639e+01 +2.7485815343e+01 1.7613998859e+02 1.7300000000e+02 0.0000e+00 1.0000e+00
       21  1    1    2  504  501 -1.0434333476e+01 +2.8819525474e+01 -4.0336795167e+02 4.0453077114e+02 0.0000000000e+00 0.0000e+00 -1.0000e+00
       21  1    1    2  505  503 +1.8415775692e+01 +5.4697958615e+01 -2.1849431035e+02 2.2598843140e+02 0.0000000000e+00 0.0000e+00 -1.0000e+00
<mgrwt>
<rscale>  4 0.17322454E+03</rscale>
<asrwt>0</asrwt>
<pdfrwt beam="1">  1       21 0.23950150E-01 0.17322454E+03</pdfrwt>
<pdfrwt beam="2">  1       21 0.13441922E+00 0.17322454E+03</pdfrwt>
<totfact> 0.66321010E+03</totfact>
</mgrwt>
</event>
<event>
 6      1 +2.5168241e+02 1.88133300e+02 7.54677100e-03 1.11671100e-01
       21 -1    0    0  503  502 +0.0000000000e+00 +0.0000000000e+00 +3.8860134377e+02 3.8860134377e+02 0.0000000000e+00 0.0000e+00 1.0000e+00
       21 -1    0    0  501  503 -0.0000000000e+00 -0.0000000000e+00 -1.9013148391e+02 1.9013148391e+02 0.0000000000e+00 0.0000e+00 -1.0000e+00
        6  1    1    2  501    0 -3.3091265543e+01 +7.1226584599e+01 -5.4438937000e+01 1.9763819487e+02 1.7300000000e+02 0.0000e+00 -1.0000e+00
       -6  1    1    2    0  504 +7.0223314293e+01 -3.0461537960e+01 +1.3299023204e+02 2.3124580209e+02 1.7300000000e+02 0.0000e+00 1.0000e+00
       21  1    1    2  504  505 -7.5612172619e+00 -5.5926525577e+01 +7.0703304157e+01 9.0464940658e+01 0.0000000000e+00 0.0000e+00 1.0000e+00
       21  1    1    2  505  502 -2.9570831487e+01 +1.5161478937e+01 +4.9215260653e+01 5.9383890067e+01 0.0000000000e+00 0.0000e+00 -1.0000e+00
<mgrwt>
<rscale>  4 0.18813329E+03</rscale>
<asrwt>0</asrwt>
<pdfrwt beam="1">  1       21 0.59784822E-01 0.18813329E+03</pdfrwt>
<pdfrwt beam="2">  1       21 0.29250998E-01 0.18813329E+03</pdfrwt>
<totfact> 0.29301490E+04</totfact>
</mgrwt>
</event>
<event>
 6      1 +2.5168241e+02 1.99804600e+02 7.54677100e-03 1.07064900e-01
       21 -1    0    0  505  502 +0.0000000000e+00 +0.0000000000e+00 +1.0396353316e+02 1.0396353316e+02 0.0000000000e+00 0.0000e+00 -1.0000e+00
       21 -1    0    0  504  503 -0.0000000000e+00 -0.0000000000e+00 -2.8653162732e+03 2.8653162732e+03 0.0000000000e+00 0.0000e+00 -1.0000e+00
        6  1    1    2  501    0 +8.4983844520e+00 -1.3323239465e+02 -3.3967121897e+02 4.0389185498e+02 1.7300000000e+02 0.0000e+00 -1.0000e+00
       -6  1    1    2    0  503 +1.0572032495e+02 +2.9560841280e+01 -2.0008223211e+03 2.0112855568e+03 1.7300000000e+02 0.0000e+00 1.0000e+00
       21  1    1    2  504  502 -1.9115802372e+02 +1.4623925531e+02 -3.9482324670e+02 4.6239886025e+02 0.0000000000e+00 0.0000e+00 -1.0000e+00
       21  1    1    2  505  501 +7.6939314320e+01 -4.2567701942e+01 -2.6035953226e+01 9.1703534267e+01 0.0000000000e+00 0.0000e+00 -1.0000e+00
<mgrwt>
<rscale>  4 0.19980459E+03</rscale>
<asrwt>0</asrwt>
<pdfrwt beam="1">  1       21 0.15994390E-01 0.19980459E+03</pdfrwt>
<pdfrwt beam="2">  1       21 0.44081787E+00 0.19980459E+03</pdfrwt>
<totfact> 0.16477140E+02</totfact>
</mgrwt>
</event>
<event>
 6      1 +2.5168241e+02 3.16899900e+02 7.54677100e-03 1.12989000e-01
       21 -1    0    0  503  502 +0.0000000000e+00 +0.0000000000e+00 +8.8478284202e+02 8.8478284202e+02 0.0000000000e+00 0.0000e+00 -1.0000e+00
       21 -1    0    0  501  503 -0.0000000000e+00 -0.0000000000e+00 -2.1643951587e+02 2.1643951587e+02 0.0000000000e+00 0.0000e+00 1.0000e+00
        6  1    1    2  501    0 +2.5140185213e+02 +9.5675174559e+01 +2.5881831201e+02 4.1142745279e+02 1.7300000000e+02 0.0000e+00 1.0000e+00
       -6  1    1    2    0  504 +2.5890807280e+01 -1.4817636044e+02 +1.1929309782e+02 2.5843066939e+02 1.7300000000e+02 0.0000e+00 -1.0000e+00
       21  1    1    2  504  505 -9.2473520164e+01 -5.2078764933e+01 +8.4046643823e+01 1.3537868380e+02 0.0000000000e+00 0.0000e+00 -1.0000e+00
       21  1    1    2  505  502 -1.8481913924e+02 +1.0457995082e+02 +2.0618527250e+02 2.9598555191e+02 0.0000000000e+00 0.0000e+00 -1.0000e+00
<mgrwt>
<rscale>  4 0.29225968E+03</rscale>
<asrwt>0</asrwt>
<pdfrwt beam="1">  1       21 0.13612044E+00 0.31689989E+03</pdfrwt>
<pdfrwt beam="2">  1       21 0.33298388E-01 0.31689989E+03</pdfrwt>
<totfact> 0.30649332E+03</totfact>
</mgrwt>
</event>
<event>
 6      1 +2.5168241e+02 1.75668000e+02 7.54677100e-03 1.12068800e-01
       21 -1    0    0  504  502 +0.0000000000e+00 +0.0000000000e+00 +6.6124916109e+02 6.6124916109e+02 0.0000000000e+00 0.0000e+00 1.0000e+00
       21 -1    0    0  502  503 -0.0000000000e+00 -0.0000000000e+00 -1.0352293216e+02 1.0352293216e+02 0.0000000000e+00 0.0000e+00 1.0000e+00
        6  1    1    2  501    0 -2.3044326758e+01 +1.0489619489e+01 +3.3546868850e+02 3.7829791709e+02 1.7300000000e+02 0.0000e+00 -1.0000e+00
       -6  1    1    2    0  505 +5.2475870521e+00 -4.7918390337e+01 +2.4386406897e+02 3.0285705116e+02 1.7300000000e+02 0.0000e+00 1.0000e+00
       21  1    1    2  504  501 +9.8261586398e+00 +5.7689475245e+01 -1.9761825415e+01 6.1766970877e+01 0.0000000000e+00 0.0000e+00 1.0000e+00
       21  1    1    2  505  503 +7.9705810657e+00 -2.0260704396e+01 -1.8447031287e+00 2.1850154114e+01 0.0000000000e+00 0.0000e+00 -1.0000e+00
<mgrwt>
<rscale>  4 0.17566801E+03</rscale>
<asrwt>0</asrwt>
<pdfrwt beam="1">  1       21 0.10173064E+00 0.17566801E+03</pdfrwt>
<pdfrwt beam="2">  1       21 0.15926605E-01 0.17566801E+03</pdfrwt>
<totfact> 0.27986612E+04</totfact>
</mgrwt>
</event>
<event>
 6      1 +2.5168241e+02 2.26239100e+02 7.54677100e-03 1.11910500e-01
       21 -1    0    0  501  502 +0.0000000000e+00 +0.0000000000e+00 +7.4715760721e+02 7.4715760721e+02 0.0000000000e+00 0.0000e+00 1.0000e+00
       21 -1    0    0  504  503 -0.0000000000e+00 -0.0000000000e+00 -2.5613515970e+02 2.5613515970e+02 0.0000000000e+00 0.0000e+00 1.0000e+00
        6  1    1    2  501    0 +7.7345119008e+01 +2.2466312892e+01 -3.2097166768e+01 1.9351028594e+02 1.7300000000e+02 0.0000e+00 1.0000e+00
       -6  1    1    2    0  503 -4.4416090536e+01 -1.6086434057e+02 +5.8806512735e+02 6.3529498594e+02 1.7300000000e+02 0.0000e+00 1.0000e+00
       21  1    1    2  504  505 -1.9629173283e+01 +1.9315758742e+01 -4.5373473774e+01 5.3076879165e+01 0.0000000000e+00 0.0000e+00 1.0000e+00
       21  1    1    2  505  502 -1.3299855189e+01 +1.1908226893e+02 -1.9572039299e+01 1.2141061587e+02 0.0000000000e+00 0.0000e+00 1.0000e+00
<mgrwt>
<rscale>  4 0.22623905E+03</rscale>
<asrwt>0</asrwt>
<pdfrwt beam="1">  1       21 0.11494732E+00 0.22623905E+03</pdfrwt>
<pdfrwt beam="2">  1       21 0.39405409E-01 0.22623905E+03</pdfrwt>
<totfact> 0.35466904E+03</totfact>
</mgrwt>
</event>
<event>
 6      1 +2.5168241e+02 1.75363600e+02 7.54677100e-03 1.03924000e-01
       21 -1    0    0  504  502 +0.0000000000e+00 +0.0000000000e+00 +4.2486235326e+02 4.2486235326e+02 0.0000000000e+00 0.0000e+00 -1.0000e+00
       21 -1    0    0  501  503 -0.0000000000e+00 -0.0000000000e+00 -1.5108547680e+02 1.5108547680e+02 0.0000000000e+00 0.0000e+00 -1.0000e+00
        6  1    1    2  501    0 -3.1143421982e+01 -2.6763602258e+01 +8.2575766311e+00 1.7799828850e+02 1.7300000000e+02 0.0000e+00 1.0000e+00
       -6  1    1    2    0  505 +1.0811220094e+01 +4.9038734743e+00 +7.1656867649e+01 1.8762898800e+02 1.7300000000e+02 0.0000e+00 -1.0000e+00
       21  1    1    2  504  503 +5.3591794897e+00 -1.9649658639e+01 +1.3022607630e+01 2.4174742996e+01 0.0000000000e+00 0.0000e+00 -1.0000e+00
       21  1    1    2  505  502 +1.4973022398e+01 +4.1509387423e+01 +1.8083982455e+02 1.8614581055e+02 0.0000000000e+00 0.0000e+00 -1.0000e+00
<mgrwt>
<rscale>  4 0.17536358E+03</rscale>
<asrwt>0</asrwt>
<pdfrwt beam="1">  1       21 0.65363438E-01 0.17536358E+03</pdfrwt>
<pdfrwt beam="2">  1       21 0.23243920E-01 0.17536358E+03</pdfrwt>
<totfact> 0.37797353E+04</totfact>
</mgrwt>
</event>
<event>
 6      1 +2.5168241e+02 2.94384000e+02 7.54677100e-03 1.15942100e-01
       21 -1    0    0  504  502 +0.0000000000e+00 +0.0000000000e+00 +1.4497927085e+02 1.4497927085e+02 0.0000000000e+00 0.0000e+00 1.0000e+00
       21 -1    0    0  501  503 -0.0000000000e+00 -0.0000000000e+00 -3.3716339959e+03 3.3716339959e+03 0.0000000000e+00 0.0000e+00 -1.0000e+00
        6  1    1    2  501    0 -1.8745279833e+02 -3.7096400372e+02 -6.6027752150e+02 7.9915470908e+02 1.7300000000e+02 0.0000e+00 1.0000e+00
       -6  1    1    2    0  502 +1.1190453541e+02 +1.4040009760e+02 -1.8533123451e+02 3.1066296679e+02 1.7300000000e+02 0.0000e+00 1.0000e+00
       21  1    1    2  504  505 +1.2085347656e+02 +1.0889217953e+02 -6.2052857025e+02 6.4149729232e+02 0.0000000000e+00 0.0000e+00 1.0000e+00
       21  1    1    2  505  503 -4.5305213639e+01 +1.2167172660e+02 -1.7605173988e+03 1.7652982986e+03 0.0000000000e+00 0.0000e+00 -1.0000e+00
<mgrwt>
<rscale>  4 0.29438405E+03</rscale>
<asrwt>0</asrwt>
<pdfrwt beam="1">  1       21 0.22304505E-01 0.29438405E+03</pdfrwt>
<pdfrwt beam="2">  1       21 0.51871289E+00 0.29438405E+03</pdfrwt>
<totfact> 0.22261059E+01</totfact>
</mgrwt>
</event>
<event>
 6      1 +2.5168241e+02 1.85099400e+02 7.54677100e-03 1.15942100e-01
       21 -1    0    0  504  502 +0.0000000000e+00 +0.0000000000e+00 +1.2139898635e+03 1.2139898635e+03 0.0000000000e+00 0.0000e+00 1.0000e+00
       21 -1    0    0  501  503 -0.0000000000e+00 -0.0000000000e+00 -1.5441022208e+02 1.5441022208e+02 0.0000000000e+00 0.0000e+00 -1.0000e+00
        6  1    1    2  501    0 -8.4784210314e+01 +5.3445922178e+01 +3.6351635787e+02 4.1487102979e+02 1.7300000000e+02 0.0000e+00 1.0000e+00
       -6  1    1    2    0  502 +2.0520997247e+01 -5.3117202820e+01 +8.0553315629e+02 8.2586634176e+02 1.7300000000e+02 0.0000e+00 1.0000e+00
       21  1    1    2  504  505 +1.9614570104e+01 -6.3709071348e+00 -3.3807575283e+01 3.9601413669e+01 0.0000000000e+00 0.0000e+00 1.0000e+00
       21  1    1    2  505  503 +4.4648642963e+01 +6.0421877760e+00 -7.5662297503e+01 8.8061300326e+01 0.0000000000e+00 0.0000e+00 -1.0000e+00
<mgrwt>
<rscale>  4 0.18509938E+03</rscale>
<asrwt>0</asrwt>
<pdfrwt beam="1">  1       21 0.18676767E+00 0.18509938E+03</pdfrwt>
<pdfrwt beam="2">  1       21 0.23755420E-01 0.18509938E+03</pdfrwt>
<totfact> 0.27557617E+03</totfact>
</mgrwt>
</event>
<event>
 6      1 +2.5168241e+02 2.40533900e+02 7.54677100e-03 1.16820100e-01
       21 -1    0    0  505  502 +0.0000000000e+00 +0.0000000000e+00 +1.0501356935e+03 1.0501356935e+03 0.0000000000e+00 0.0000e+00 1.0000e+00
       21 -1    0    0  501  503 -0.0000000000e+00 -0.0000000000e+00 -1.1943836544e+02 1.1943836544e+02 0.0000000000e+00 0.0000e+00 -1.0000e+00
        6  1    1    2  501    0 +3.3484226643e+01 -1.5547225743e+02 +1.9026192706e+02 3.0235974790e+02 1.7300000000e+02 0.0000e+00 1.0000e+00
       -6  1    1    2    0  502 +2.9126108661e+01 +1.7123066077e+02 +6.4922847260e+02 6.9397037330e+02 1.7300000000e+02 0.0000e+00 1.0000e+00
       21  1    1    2  504  503 +7.0042921768e+00 +1.9643454902e+01 -2.5421498907e+01 3.2881271814e+01 0.0000000000e+00 0.0000e+00 -1.0000e+00
       21  1    1    2  505  504 -6.9614627482e+01 -3.5401858239e+01 +1.1662842726e+02 1.4036266588e+02 0.0000000000e+00 0.0000e+00 -1.0000e+00
<mgrwt>
<rscale>  4 0.24053387E+03</rscale>
<asrwt>0</asrwt>
<pdfrwt beam="1">  1       21 0.16155933E+00 0.24053387E+03</pdfrwt>
<pdfrwt beam="2">  1       21 0.18375134E-01 0.24053387E+03</pdfrwt>
<totfact> 0.63885209E+03</totfact>
</mgrwt>
</event>
<event>
 6      1 +2.5168241e+02 1.80085300e+02 7.54677100e-03 1.16820100e-01
       21 -1    0    0  505  502 +0.0000000000e+00 +0.0000000000e+00 +1.2370476945e+02 1.2370476945e+02 0.0000000000e+00 0.0000e+00 1.0000e+00
       21 -1    0    0  501  503 -0.0000000000e+00 -0.0000000000e+00 -2.2495456142e+03 2.2495456142e+03 0.0000000000e+00 0.0000e+00 1.0000e+00
        6  1    1    2  501    0 +2.5346193132e+01 -1.1513830343e+01 -9.0764123810e+02 9.2440067876e+02 1.7300000000e+02 0.0000e+00 1.0000e+00
       -6  1    1    2    0  502 +1.3307701487e+01 -4.0635652282e+01 -9.4639958967e+01 2.0177728561e+02 1.7300000000e+02 0.0000e+00 1.0000e+00
       21  1    1    2  504  503 +4.4660676258e+01 -4.3847147678e+00 -1.1435434104e+03 1.1444235812e+03 0.0000000000e+00 0.0000e+00 1.0000e+00
       21  1    1    2  505  504 -8.3314570877e+01 +5.6534197393e+01 +1.9983762683e+01 1.0264883811e+02 0.0000000000e+00 0.0000e+00 1.0000e+00
<mgrwt>
<rscale>  4 0.18008526E+03</rscale>
<asrwt>0</asrwt>
<pdfrwt beam="1">  1       21 0.19031504E-01 0.18008526E+03</pdfrwt>
<pdfrwt beam="2">  1       21 0.34608391E+00 0.18008526E+03</pdfrwt>
<totfact> 0.47649353E+02</totfact>
</mgrwt>
</event>
<event>
 6      1 +2.5168241e+02 2.81005500e+02 7.54677100e-03 1.03924000e-01
       21 -1    0    0  504  502 +0.0000000000e+00 +0.0000000000e+00 +5.2934641788e+02 5.2934641788e+02 0.0000000000e+00 0.0000e+00 -1.0000e+00
       21 -1    0    0  501  503 -0.0000000000e+00 -0.0000000000e+00 -3.5664740201e+02 3.5664740201e+02 0.0000000000e+00 0.0000e+00 -1.0000e+00
        6  1    1    2  501    0 +1.7366255066e+02 -1.7821186781e+02 +2.1498154264e+02 3.7156993286e+02 1.7300000000e+02 0.0000e+00 -1.0000e+00
       -6  1    1    2    0  505 +6.7915319810e+00 +7.9387355306e+01 -1.8037590350e+02 2.6232221342e+02 1.7300000000e+02 0.0000e+00 -1.0000e+00
       21  1    1    2  504  503 -1.1584174272e+02 +8.7702177263e+01 +9.7853695671e+01 1.7517513239e+02 0.0000000000e+00 0.0000e+00 -1.0000e+00
       21  1    1    2  505  502 -6.4612339919e+01 +1.1122335243e+01 +4.0239681066e+01 7.6926541215e+01 0.0000000000e+00 0.0000e+00 -1.0000e+00
<mgrwt>
<rscale>  4 0.25497096E+03</rscale>
<asrwt>0</asrwt>
<pdfrwt beam="1">  1       21 0.81437911E-01 0.28100547E+03</pdfrwt>
<pdfrwt beam="2">  1       21 0.54868831E-01 0.28100547E+03</pdfrwt>
<totfact> 0.38974101E+03</totfact>
</mgrwt>
</event>
<event>
 6      1 +2.5168241e+02 1.78184600e+02 7.54677100e-03 1.16820100e-01
       21 -1    0    0  505  502 +0.0000000000e+00 +0.0000000000e+00 +1.4045697510e+02 1.4045697510e+02 0.0000000000e+00 0.0000e+00 1.0000e+00
       21 -1    0    0  501  503 -0.0000000000e+00 -0.0000000000e+00 -1.1699584302e+03 1.1699584302e+03 0.0000000000e+00 0.0000e+00 1.0000e+00
        6  1    1    2  501    0 -4.9714227875e+01 -2.4317812546e+00 -6.7740183541e+02 7.0091345017e+02 1.7300000000e+02 0.0000e+00 1.0000e+00
       -6  1    1    2    0  502 +4.8446637380e+01 +9.5955195608e+01 -3.0785572628e+01 2.0598841647e+02 1.7300000000e+02 0.0000e+00 1.0000e+00
       21  1    1    2  504  503 +1.0408979219e+01 +2.2739949533e+01 -2.7797674531e+02 2.7909948600e+02 0.0000000000e+00 0.0000e+00 1.0000e+00
       21  1    1    2  505  504 -9.1413887243e+00 -1.1626336389e+02 -4.3337301712e+01 1.2441405262e+02 0.0000000000e+00 0.0000e+00 1.0000e+00
<mgrwt>
<rscale>  4 0.17818460E+03</rscale>
<asrwt>0</asrwt>
<pdfrwt beam="1">  1       21 0.21608765E-01 0.17818460E+03</pdfrwt>
<pdfrwt beam="2">  1       21 0.17999361E+00 0.17818460E+03</pdfrwt>
<totfact> 0.36840084E+03</totfact>
</mgrwt>
</event>
<event>
 6      1 +2.5168241e+02 2.14621500e+02 7.54677100e-03 1.15942100e-01
       21 -1    0    0  504  502 +0.0000000000e+00 +0.0000000000e+00 +2.3839151000e+02 2.3839151000e+02 0.0000000000e+00 0.0000e+00 1.0000e+00
       21 -1    0    0  501  503 -0.0000000000e+00 -0.0000000000e+00 -1.0067795088e+03 1.0067795088e+03 0.0000000000e+00 0.0000e+00 1.0000e+00
        6  1    1    2  501    0 -1.1541676666e+02 -3.3781883005e+01 +1.3048532661e+02 2.4782587860e+02 1.7300000000e+02 0.0000e+00 1.0000e+00
       -6  1    1    2    0  502 +1.4064001414e+02 +9.1412783997e+01 -2.5724600498e+02 3.5247754217e+02 1.7300000000e+02 0.0000e+00 1.0000e+00
       21  1    1    2  504  505 -1.2770772194e+01 -2.6391028971e+01 -3.7145048890e+02 3.7260574973e+02 0.0000000000e+00 0.0000e+00 1.0000e+00
       21  1    1    2  505  503 -1.2452475280e+01 -3.1239872020e+01 -2.7017683155e+02 2.7226184832e+02 0.0000000000e+00 0.0000e+00 1.0000e+00
<mgrwt>
<rscale>  4 0.21462155E+03</rscale>
<asrwt>0</asrwt>
<pdfrwt beam="1">  1       21 0.36675617E-01 0.21462155E+03</pdfrwt>
<pdfrwt beam="2">  1       21 0.15488915E+00 0.21462155E+03</pdfrwt>
<totfact> 0.19286622E+03</totfact>
</mgrwt>
</event>
<event>
 6      1 +2.5168241e+02 1.79099300e+02 7.54677100e-03 1.05854100e-01
       21 -1    0    0  504  502 +0.0000000000e+00 +0.0000000000e+00 +2.3667435543e+02 2.3667435543e+02 0.0000000000e+00 0.0000e+00 1.0000e+00
       21 -1    0    0  502  503 -0.0000000000e+00 -0.0000000000e+00 -2.5826868036e+02 2.5826868036e+02 0.0000000000e+00 0.0000e+00 -1.0000e+00
        6  1    1    2  501    0 -3.7600148221e+01 -9.5718118066e+00 -1.3251034527e+02 2.2134448791e+02 1.7300000000e+02 0.0000e+00 -1.0000e+00
       -6  1    1    2    0  503 +5.1430003798e+01 +3.9998711005e+01 +1.2316457900e+02 2.2213386885e+02 1.7300000000e+02 0.0000e+00 -1.0000e+00
       21  1    1    2  504  505 +5.5599663270e+00 -1.9935282019e+01 -1.9319655703e+01 2.8312149180e+01 0.0000000000e+00 0.0000e+00 -1.0000e+00
       21  1    1    2  505  501 -1.9389821904e+01 -1.0491617180e+01 +7.0710970529e+00 2.3152529841e+01 0.0000000000e+00 0.0000e+00 1.0000e+00
<mgrwt>
<rscale>  4 0.17909927E+03</rscale>
<asrwt>0</asrwt>
<pdfrwt beam="1">  1       21 0.36411439E-01 0.17909927E+03</pdfrwt>
<pdfrwt beam="2">  1       21 0.39733643E-01 0.17909927E+03</pdfrwt>
<totfact> 0.44704171E+04</totfact>
</mgrwt>
</event>
<event>
 6      1 +2.5168241e+02 2.16358800e+02 7.54677100e-03 1.16820100e-01
       21 -1    0    0  505  502 +0.0000000000e+00 +0.0000000000e+00 +3.2563312416e+02 3.2563312416e+02 0.0000000000e+00 0.0000e+00 -1.0000e+00
       21 -1    0    0  504  503 -0.0000000000e+00 -0.0000000000e+00 -5.1983776082e+02 5.1983776082e+02 0.0000000000e+00 0.0000e+00 1.0000e+00
        6  1    1    2  501    0 -1.0524112429e+02 -3.1482024857e+01 +1.9188672129e+02 2.8074245482e+02 1.7300000000e+02 0.0000e+00 -1.0000e+00
       -6  1    1    2    0  503 +9.0646365922e+01 +8.5001372803e+01 -3.6023833339e+02 4.1850048253e+02 1.7300000000e+02 0.0000e+00 1.0000e+00
       21  1    1    2  504  502 +3.5536580208e+01 -3.4816986893e+01 -7.4779955857e+01 8.9817108098e+01 0.0000000000e+00 0.0000e+00 1.0000e+00
       21  1    1    2  505  501 -2.0941821840e+01 -1.8702361053e+01 +4.8926931289e+01 5.6410839528e+01 0.0000000000e+00 0.0000e+00 -1.0000e+00
<mgrwt>
<rscale>  4 0.21635881E+03</rscale>
<asrwt>0</asrwt>
<pdfrwt beam="1">  1       21 0.50097404E-01 0.21635881E+03</pdfrwt>
<pdfrwt beam="2">  1       21 0.79975039E-01 0.21635881E+03</pdfrwt>
<totfact> 0.51302294E+03</totfact>
</mgrwt>
</event>
<event>
 6      1 +2.5168241e+02 1.77326500e+02 7.54677100e-03 1.04003000e-01
       21 -1    0    0  504  502 +0.0000000000e+00 +0.0000000000e+00 +2.5651575230e+02 2.5651575230e+02 0.0000000000e+00 0.0000e+00 1.0000e+00
       21 -1    0    0  505  503 -0.0000000000e+00 -0.0000000000e+00 -2.6984740200e+02 2.6984740200e+02 0.0000000000e+00 0.0000e+00 1.0000e+00
        6  1    1    2  501    0 -4.1324406727e+01 +3.1705841245e+01 +1.0187146879e+02 2.0741206116e+02 1.7300000000e+02 0.0000e+00 1.0000e+00
       -6  1    1    2    0  503 -1.4036834785e+00 -2.7304699415e+00 -6.8717029825e+01 1.8617318814e+02 1.7300000000e+02 0.0000e+00 1.0000e+00
       21  1    1    2  504  501 +1.3463053119e+01 -6.8538711794e+01 -4.5869499188e+01 8.3563268063e+01 0.0000000000e+00 0.0000e+00 1.0000e+00
       21  1    1    2  505  502 +2.9265037087e+01 +3.9563340490e+01 -6.1658947430e-01 4.9214636939e+01 0.0000000000e+00 0.0000e+00 -1.0000e+00
<mgrwt>
<rscale>  4 0.17732655E+03</rscale>
<asrwt>0</asrwt>
<pdfrwt beam="1">  1       21 0.39463962E-01 0.17732655E+03</pdfrwt>
<pdfrwt beam="2">  1       21 0.41514985E-01 0.17732655E+03</pdfrwt>
<totfact> 0.34857727E+04</totfact>
</mgrwt>
</event>
<event>
 6      1 +2.5168241e+02 2.15018200e+02 7.54677100e-03 1.07064900e-01
       21 -1    0    0  505  502 +0.0000000000e+00 +0.0000000000e+00 +7.0443160615e+02 7.0443160615e+02 0.0000000000e+00 0.0000e+00 -1.0000e+00
       21 -1    0    0  501  503 -0.0000000000e+00 -0.0000000000e+00 -1.5070618148e+02 1.5070618148e+02 0.0000000000e+00 0.0000e+00 1.0000e+00
        6  1    1    2  501    0 +6.2727434436e+01 -1.5629988675e+02 +9.5394895982e+01 2.5960271919e+02 1.7300000000e+02 0.0000e+00 1.0000e+00
       -6  1    1    2    0  502 -2.9138722790e+01 +8.3834286712e+01 +1.1432265374e+02 2.2555691511e+02 1.7300000000e+02 0.0000e+00 1.0000e+00
       21  1    1    2  504  503 -5.0355079763e+01 +9.5299779350e+01 +2.6799830956e+02 2.8886117069e+02 0.0000000000e+00 0.0000e+00 -1.0000e+00
       21  1    1    2  505  504 +1.6766368116e+01 -2.2834179308e+01 +7.6009565374e+01 8.1116982641e+01 0.0000000000e+00 0.0000e+00 1.0000e+00
<mgrwt>
<rscale>  4 0.21501824E+03</rscale>
<asrwt>0</asrwt>
<pdfrwt beam="1">  1       21 0.10837409E+00 0.21501824E+03</pdfrwt>
<pdfrwt beam="2">  1       21 0.23185567E-01 0.21501824E+03</pdfrwt>
<totfact> 0.11656902E+04</totfact>
</mgrwt>
</event>
<event>
 6      1 +2.5168241e+02 4.22852200e+02 7.54677100e-03 1.15942100e-01
       21 -1    0    0  504  502 +0.0000000000e+00 +0.0000000000e+00 +1.0850464538e+03 1.0850464538e+03 0.0000000000e+00 0.0000e+00 -1.0000e+00
       21 -1    0    0  501  503 -0.0000000000e+00 -0.0000000000e+00 -5.8907983883e+02 5.8907983883e+02 0.0000000000e+00 0.0000e+00 1.0000e+00
        6  1    1    2  501    0 +2.2547226990e+02 -3.0919185025e+02 +6.5570849145e+02 7.7866550618e+02 1.7300000000e+02 0.0000e+00 -1.0000e+00
       -6  1    1    2    0  502 -2.8297594661e+02 +2.7714291059e+02 +2.3640128311e+02 4.9264403570e+02 1.7300000000e+02 0.0000e+00 1.0000e+00
       21  1    1    2  504  505 +3.2935471367e+01 +1.3116629368e+00 -2.0880529208e+02 2.1139090741e+02 0.0000000000e+00 0.0000e+00 1.0000e+00
       21  1    1    2  505  503 +2.4568205344e+01 +3.0737276720e+01 -1.8733786751e+02 1.9142584334e+02 0.0000000000e+00 0.0000e+00 1.0000e+00
<mgrwt>
<rscale>  4 0.42285220E+03</rscale>
<asrwt>0</asrwt>
<pdfrwt beam="1">  1       21 0.16693022E+00 0.42285220E+03</pdfrwt>
<pdfrwt beam="2">  1       21 0.90627668E-01 0.42285220E+03</pdfrwt>
<totfact> 0.19132681E+02</totfact>
</mgrwt>
</event>
<event>
 6      1 +2.5168241e+02 3.40976900e+02 7.54677100e-03 1.15942100e-01
       21 -1    0    0  504  502 +0.0000000000e+00 +0.0000000000e+00 +4.4012931308e+02 4.4012931308e+02 0.0000000000e+00 0.0000e+00 -1.0000e+00
       21 -1    0    0  501  503 -0.0000000000e+00 -0.0000000000e+00 -1.0481649964e+03 1.0481649964e+03 0.0000000000e+00 0.0000e+00 -1.0000e+00
        6  1    1    2  501    0 +5.7647966387e+01 -3.0446943756e+02 -2.0519535371e+02 4.0995006966e+02 1.7300000000e+02 0.0000e+00 -1.0000e+00
       -6  1    1    2    0  502 -2.0882020278e+01 +1.7568971763e+01 +2.8280706915e+02 3.3264630751e+02 1.7300000000e+02 0.0000e+00 -1.0000e+00
       21  1    1    2  504  505 +9.4688811947e+00 +2.6106034405e+01 -7.9482315176e+01 8.4193961596e+01 0.0000000000e+00 0.0000e+00 -1.0000e+00
       21  1    1    2  505  503 -4.6234827303e+01 +2.6079443139e+02 -6.0616508358e+02 6.6150397070e+02 0.0000000000e+00 0.0000e+00 -1.0000e+00
<mgrwt>
<rscale>  4 0.28866193E+03</rscale>
<asrwt>0</asrwt>
<pdfrwt beam="1">  1       21 0.67712202E-01 0.34097688E+03</pdfrwt>
<pdfrwt beam="2">  1       21 0.16125615E+00 0.34097688E+03</pdfrwt>
<totfact> 0.43185594E+02</totfact>
</mgrwt>
</event>
<event>
 6      1 +2.5168241e+02 2.23816200e+02 7.54677100e-03 1.11910500e-01
       21 -1    0    0  501  502 +0.0000000000e+00 +0.0000000000e+00 +1.6555993737e+03 1.6555993737e+03 0.0000000000e+00 0.0000e+00 -1.0000e+00
       21 -1    0    0  505  503 -0.0000000000e+00 -0.0000000000e+00 -3.3284908421e+02 3.3284908421e+02 0.0000000000e+00 0.0000e+00 1.0000e+00
        6  1    1    2  501    0 +7.7489067225e+01 +7.0230841854e+01 +4.4913272296e+02 4.9253033361e+02 1.7300000000e+02 0.0000e+00 1.0000e+00
       -6  1    1    2    0  504 -1.7750231783e+02 +1.8083995528e-01 +1.1413606218e+03 1.1679641153e+03 1.7300000000e+02 0.0000e+00 -1.0000e+00
       21  1    1    2  504  503 -1.7491216849e+01 -1.4514017445e+01 -1.5235027475e+02 1.5403637747e+02 0.0000000000e+00 0.0000e+00 1.0000e+00
       21  1    1    2  505  502 +1.1750446745e+02 -5.5897664364e+01 -1.1539278057e+02 1.7391763154e+02 0.0000000000e+00 0.0000e+00 1.0000e+00
<mgrwt>
<rscale>  4 0.22381620E+03</rscale>
<asrwt>0</asrwt>
<pdfrwt beam="1">  1       21 0.25470759E+00 0.22381620E+03</pdfrwt>
<pdfrwt beam="2">  1       21 0.51207552E-01 0.22381620E+03</pdfrwt>
<totfact> 0.21687192E+02</totfact>
</mgrwt>
</event>
<event>
 6      1 +2.5168241e+02 2.31368000e+02 7.54677100e-03 1.03924000e-01
       21 -1    0    0  501  502 +0.0000000000e+00 +0.0000000000e+00 +5.9193522822e+01 5.9193522822e+01 0.0000000000e+00 0.0000e+00 -1.0000e+00
       21 -1    0    0  502  503 -0.0000000000e+00 -0.0000000000e+00 -1.8435355204e+03 1.8435355204e+03 0.0000000000e+00 0.0000e+00 -1.0000e+00
        6  1    1    2  501    0 +3.4204763370e+01 -1.0414159087e+02 -7.4919721582e+02 7.7668584704e+02 1.7300000000e+02 0.0000e+00 -1.0000e+00
       -6  1    1    2    0  505 -1.7460366399e+00 -8.6908214229e+01 -2.4968233014e+02 3.1595308565e+02 1.7300000000e+02 0.0000e+00 -1.0000e+00
       21  1    1    2  504  503 -3.0676497166e+00 +2.5587481075e+01 -5.7977688939e+01 6.3447159726e+01 0.0000000000e+00 0.0000e+00 1.0000e+00
       21  1    1    2  505  504 -2.9391077014e+01 +1.6546232403e+02 -7.2748476269e+02 7.4664295084e+02 0.0000000000e+00 0.0000e+00 -1.0000e+00
<mgrwt>
<rscale>  4 0.22128899E+03</rscale>
<asrwt>0</asrwt>
<pdfrwt beam="1">  1       21 0.91066957E-02 0.23136802E+03</pdfrwt>
<pdfrwt beam="2">  1       21 0.28362085E+00 0.23136802E+03</pdfrwt>
<totfact> 0.38943115E+03</totfact>
</mgrwt>
</event>
<event>
 6      1 +2.5168241e+02 2.63657700e+02 7.54677100e-03 1.16820100e-01
       21 -1    0    0  501  502 +0.0000000000e+00 +0.0000000000e+00 +5.1735986132e+02 5.1735986132e+02 0.0000000000e+00 0.0000e+00 -1.0000e+00
       21 -1    0    0  504  503 -0.0000000000e+00 -0.0000000000e+00 -1.8390339535e+03 1.8390339535e+03 0.0000000000e+00 0.0000e+00 -1.0000e+00
        6  1    1    2  501    0 -1.2107730851e+01 -1.3314409027e+02 -5.1568930332e+02 5.6012356090e+02 1.7300000000e+02 0.0000e+00 1.0000e+00
       -6  1    1    2    0  503 -1.7723644298e+01 +2.3322221589e+02 -1.9569494261e+02 3.5061694214e+02 1.7300000000e+02 0.0000e+00 -1.0000e+00
       21  1    1    2  504  505 -2.7417583014e+00 -9.8330519922e+01 -1.0249763374e+03 1.0296858262e+03 0.0000000000e+00 0.0000e+00 -1.0000e+00
       21  1    1    2  505  502 +3.2573133450e+01 -1.7476056963e+00 +4.1468649114e+02 4.1596748561e+02 0.0000000000e+00 0.0000e+00 -1.0000e+00
<mgrwt>
<rscale>  4 0.26365770E+03</rscale>
<asrwt>0</asrwt>
<pdfrwt beam="1">  1       21 0.79593825E-01 0.26365770E+03</pdfrwt>
<pdfrwt beam="2">  1       21 0.28292830E+00 0.26365770E+03</pdfrwt>
<totfact> 0.53784130E+01</totfact>
</mgrwt>
</event>
<event>
 6      1 +2.5168241e+02 2.34384400e+02 7.54677100e-03 1.11910500e-01
       21 -1    0    0  501  502 +0.0000000000e+00 +0.0000000000e+00 +6.6777619842e+02 6.6777619842e+02 0.0000000000e+00 0.0000e+00 1.0000e+00
       21 -1    0    0  505  503 -0.0000000000e+00 -0.0000000000e+00 -1.7177446496e+02 1.7177446496e+02 0.0000000000e+00 0.0000e+00 -1.0000e+00
        6  1    1    2  501    0 +6.8008869592e+01 -1.2391389598e+02 +3.0793025247e+02 3.8043383176e+02 1.7300000000e+02 0.0000e+00 -1.0000e+00
       -6  1    1    2    0  504 -1.3431982923e+02 +1.4442780696e+02 +1.4800261908e+02 3.0122248124e+02 1.7300000000e+02 0.0000e+00 1.0000e+00
       21  1    1    2  504  503 -4.4013625314e+00 +4.0627935538e+01 -2.1286578329e+01 4.6077321484e+01 0.0000000000e+00 0.0000e+00 -1.0000e+00
       21  1    1    2  505  502 +7.0712322173e+01 -6.1141846523e+01 +6.1355440249e+01 1.1181702890e+02 0.0000000000e+00 0.0000e+00 -1.0000e+00
<mgrwt>
<rscale>  4 0.23438435E+03</rscale>
<asrwt>0</asrwt>
<pdfrwt beam="1">  1       21 0.10273480E+00 0.23438435E+03</pdfrwt>
<pdfrwt beam="2">  1       21 0.26426841E-01 0.23438435E+03</pdfrwt>
<totfact> 0.10199050E+04</totfact>
</mgrwt>
</event>
<event>
 6      1 +2.5168241e+02 1.92973100e+02 7.54677100e-03 1.04003000e-01
       21 -1    0    0  504  502 +0.0000000000e+00 +0.0000000000e+00 +1.2053290412e+02 1.2053290412e+02 0.0000000000e+00 0.0000e+00 1.0000e+00
       21 -1    0    0  505  503 -0.0000000000e+00 -0.0000000000e+00 -1.0396985772e+03 1.0396985772e+03 0.0000000000e+00 0.0000e+00 1.0000e+00
        6  1    1    2  501    0 -4.9692422049e+01 -6.7508317965e+01 -2.7801393971e+02 3.3800511901e+02 1.7300000000e+02 0.0000e+00 -1.0000e+00
       -6  1    1    2    0  503 +8.5019304257e+01 +2.9519314887e+01 -1.7485658347e+01 1.9579177791e+02 1.7300000000e+02 0.0000e+00 1.0000e+00
       21  1    1    2  504  501 -1.6700846449e+01 +2.3170458992e+01 -4.7658342228e+02 4.7743852676e+02 0.0000000000e+00 0.0000e+00 1.0000e+00
       21  1    1    2  505  502 -1.8626035758e+01 +1.4818544086e+01 -1.4708265279e+02 1.4899605769e+02 0.0000000000e+00 0.0000e+00 -1.0000e+00
<mgrwt>
<rscale>  4 0.19297310E+03</rscale>
<asrwt>0</asrwt>
<pdfrwt beam="1">  1       21 0.18543525E-01 0.19297310E+03</pdfrwt>
<pdfrwt beam="2">  1       21 0.15995362E+00 0.19297310E+03</pdfrwt>
<totfact> 0.66916638E+03</totfact>
</mgrwt>
</event>
<event>
 6      1 +2.5168241e+02 1.88346300e+02 7.54677100e-03 1.16820100e-01
       21 -1    0    0  505  502 +0.0000000000e+00 +0.0000000000e+00 +1.7762757176e+02 1.7762757176e+02 0.0000000000e+00 0.0000e+00 -1.0000e+00
       21 -1    0    0  504  503 -0.0000000000e+00 -0.0000000000e+00 -5.3261013659e+02 5.3261013659e+02 0.0000000000e+00 0.0000e+00 -1.0000e+00
        6  1    1    2  501    0 -3.7471570308e+01 -3.6481068943e+01 -1.5992633984e+01 1.8143800956e+02 1.7300000000e+02 0.0000e+00 -1.0000e+00
       -6  1    1    2    0  503 +8.1044213463e+01 +5.4080411815e+01 -1.1212953782e+02 2.2802387754e+02 1.7300000000e+02 0.0000e+00 -1.0000e+00
       21  1    1    2  504  502 -4.4418026342e+00 -3.1675656193e+01 -2.5077340837e+02 2.5280502200e+02 0.0000000000e+00 0.0000e+00 -1.0000e+00
       21  1    1    2  505  501 -3.9130840521e+01 +1.4076313321e+01 +2.3913015338e+01 4.7970799234e+01 0.0000000000e+00 0.0000e+00 -1.0000e+00
<mgrwt>
<rscale>  4 0.18834626E+03</rscale>
<asrwt>0</asrwt>
<pdfrwt beam="1">  1       21 0.27327319E-01 0.18834626E+03</pdfrwt>
<pdfrwt beam="2">  1       21 0.81940020E-01 0.18834626E+03</pdfrwt>
<totfact> 0.16679467E+04</totfact>
</mgrwt>
</event>
<event>
 6      1 +2.5168241e+02 2.65961900e+02 7.54677100e-03 1.16820100e-01
       21 -1    0    0  505  502 +0.0000000000e+00 +0.0000000000e+00 +8.0149566161e+02 8.0149566161e+02 0.0000000000e+00 0.0000e+00 -1.0000e+00
       21 -1    0    0  504  503 -0.0000000000e+00 -0.0000000000e+00 -2.0990797636e+02 2.0990797636e+02 0.0000000000e+00 0.0000e+00 1.0000e+00
        6  1    1    2  501    0 +7.8840682960e+01 -1.9492659912e+02 +2.4548899718e+02 3.6661434788e+02 1.7300000000e+02 0.0000e+00 -1.0000e+00
       -6  1    1    2    0  503 -1.1295537245e+02 +1.6989959525e+02 +2.6603316002e+02 3.7726307911e+02 1.7300000000e+02 0.0000e+00 -1.0000e+00
       21  1    1    2  504  502 +8.2994855731e+00 +5.9050809827e+01 -8.1175898772e+01 1.0072440689e+02 0.0000000000e+00 0.0000e+00 1.0000e+00
       21  1    1    2  505  501 +2.5815203915e+01 -3.4023805960e+01 +1.6124142683e+02 1.6680180410e+02 0.0000000000e+00 0.0000e+00 -1.0000e+00
<mgrwt>
<rscale>  4 0.26596187E+03</rscale>
<asrwt>0</asrwt>
<pdfrwt beam="1">  1       21 0.12330702E+00 0.26596187E+03</pdfrwt>
<pdfrwt beam="2">  1       21 0.32293535E-01 0.26596187E+03</pdfrwt>
<totfact> 0.43189984E+03</totfact>
</mgrwt>
</event>
<event>
 6      1 +2.5168241e+02 2.15633700e+02 7.54677100e-03 1.07064900e-01
       21 -1    0    0  504  502 +0.0000000000e+00 +0.0000000000e+00 +7.5395356185e+02 7.5395356185e+02 0.0000000000e+00 0.0000e+00 1.0000e+00
       21 -1    0    0  501  503 -0.0000000000e+00 -0.0000000000e+00 -1.4808421151e+02 1.4808421151e+02 0.0000000000e+00 0.0000e+00 1.0000e+00
        6  1    1    2  501    0 +1.3728471479e+02 -2.0406010310e+01 +9.0880566548e+01 2.3969100014e+02 1.7300000000e+02 0.0000e+00 1.0000e+00
       -6  1    1    2    0  505 -1.0263856797e+02 -1.2139371327e+02 +1.8180490756e+02 2.9707428982e+02 1.7300000000e+02 0.0000e+00 -1.0000e+00
       21  1    1    2  504  503 -1.2566421762e+01 +4.0802655570e+01 +1.3724841990e+02 1.4373552248e+02 0.0000000000e+00 0.0000e+00 1.0000e+00
       21  1    1    2  505  502 -2.2079725064e+01 +1.0099706801e+02 +1.9593545633e+02 2.2153696091e+02 0.0000000000e+00 0.0000e+00 1.0000e+00
<mgrwt>
<rscale>  4 0.21563369E+03</rscale>
<asrwt>0</asrwt>
<pdfrwt beam="1">  1       21 0.11599285E+00 0.21563369E+03</pdfrwt>
<pdfrwt beam="2">  1       21 0.22782187E-01 0.21563369E+03</pdfrwt>
<totfact> 0.10209195E+04</totfact>
</mgrwt>
</event>
<event>
 6      1 +2.5168241e+02 2.72829000e+02 7.54677100e-03 1.15942100e-01
       21 -1    0    0  504  502 +0.0000000000e+00 +0.0000000000e+00 +1.1350078958e+03 1.1350078958e+03 0.0000000000e+00 0.0000e+00 1.0000e+00
       21 -1    0    0  501  503 -0.0000000000e+00 -0.0000000000e+00 -5.3824676351e+02 5.3824676351e+02 0.0000000000e+00 0.0000e+00 -1.0000e+00
        6  1    1    2  501    0 +1.8528969974e+02 -1.5408947778e+02 +9.4816258448e+01 3.1144014330e+02 1.7300000000e+02 0.0000e+00 1.0000e+00
       -6  1    1    2    0  502 -1.0447286332e+02 +1.7943399934e+02 +8.8817611870e+02 9.2838405691e+02 1.7300000000e+02 0.0000e+00 1.0000e+00
       21  1    1    2  504  505 +7.1361881259e+00 -7.9269055201e+01 -9.2068608147e+01 1.2170101437e+02 0.0000000000e+00 0.0000e+00 -1.0000e+00
       21  1    1    2  505  503 -8.7953024548e+01 +5.3924533644e+01 -2.9416263672e+02 3.1172944471e+02 0.0000000000e+00 0.0000e+00 -1.0000e+00
<mgrwt>
<rscale>  4 0.27282901E+03</rscale>
<asrwt>0</asrwt>
<pdfrwt beam="1">  1       21 0.17461660E+00 0.27282901E+03</pdfrwt>
<pdfrwt beam="2">  1       21 0.82807195E-01 0.27282901E+03</pdfrwt>
<totfact> 0.23114410E+02</totfact>
</mgrwt>
</event>
<event>
 6      1 +2.5168241e+02 3.14248300e+02 7.54677100e-03 1.05831300e-01
       21 -1    0    0  504  502 +0.0000000000e+00 +0.0000000000e+00 +5.1955815739e+02 5.1955815739e+02 0.0000000000e+00 0.0000e+00 -1.0000e+00
       21 -1    0    0  501  503 -0.0000000000e+00 -0.0000000000e+00 -3.1542841214e+02 3.1542841214e+02 0.0000000000e+00 0.0000e+00 1.0000e+00
        6  1    1    2  501    0 -2.5326766402e+02 -6.5034853695e+01 +1.4005770606e+02 3.4339365583e+02 1.7300000000e+02 0.0000e+00 -1.0000e+00
       -6  1    1    2    0  505 +2.5726134982e+02 +5.4193594811e+01 -6.5137263385e+01 3.2139105605e+02 1.7300000000e+02 0.0000e+00 1.0000e+00
       21  1    1    2  504  503 -9.5830116504e+00 +3.8402371317e+01 +1.6874493342e+00 3.9615952851e+01 0.0000000000e+00 0.0000e+00 -1.0000e+00
       21  1    1    2  505  502 +5.5893258552e+00 -2.7561112434e+01 +1.2752185323e+02 1.3058590480e+02 0.0000000000e+00 0.0000e+00 -1.0000e+00
<mgrwt>
<rscale>  4 0.31424832E+03</rscale>
<asrwt>0</asrwt>
<pdfrwt beam="1">  1       21 0.79932025E-01 0.31424832E+03</pdfrwt>
<pdfrwt beam="2">  1       21 0.48527448E-01 0.31424832E+03</pdfrwt>
<totfact> 0.51853709E+03</totfact>
</mgrwt>
</event>
<event>
 6      1 +2.5168241e+02 7.24734200e+02 7.54677100e-03 1.11471900e-01
       21 -1    0    0  503  502 +0.0000000000e+00 +0.0000000000e+00 +1.4161588825e+03 1.4161588825e+03 0.0000000000e+00 0.0000e+00 -1.0000e+00
       21 -1    0    0  501  503 -0.0000000000e+00 -0.0000000000e+00 -1.3202676375e+03 1.3202676375e+03 0.0000000000e+00 0.0000e+00 -1.0000e+00
        6  1    1    2  501    0 -5.9449233401e+02 -3.5759803686e+02 +3.4479910409e+02 7.9379651886e+02 1.7300000000e+02 0.0000e+00 -1.0000e+00
       -6  1    1    2    0  504 -1.9881789460e+02 +5.5525371882e+02 -4.2531112622e+02 7.4743146948e+02 1.7300000000e+02 0.0000e+00 1.0000e+00
       21  1    1    2  504  505 +8.2839111263e+02 -1.8451829763e+02 -1.5410845612e+02 8.6257072400e+02 0.0000000000e+00 0.0000e+00 -1.0000e+00
       21  1    1    2  505  502 -3.5080884016e+01 -1.3137384327e+01 +3.3051172316e+02 3.3262780767e+02 0.0000000000e+00 0.0000e+00 -1.0000e+00
<mgrwt>
<rscale>  4 0.69546849E+03</rscale>
<asrwt>0</asrwt>
<pdfrwt beam="1">  1       21 0.21787060E+00 0.72473418E+03</pdfrwt>
<pdfrwt beam="2">  1       21 0.20311810E+00 0.72473418E+03</pdfrwt>
<totfact> 0.84162642E+00</totfact>
</mgrwt>
</event>
<event>
 6      1 +2.5168241e+02 2.12435800e+02 7.54677100e-03 1.17132900e-01
       21 -1    0    0  503  502 +0.0000000000e+00 +0.0000000000e+00 +1.0547309969e+03 1.0547309969e+03 0.0000000000e+00 0.0000e+00 -1.0000e+00
       21 -1    0    0  504  503 -0.0000000000e+00 -0.0000000000e+00 -6.3095941003e+02 6.3095941003e+02 0.0000000000e+00 0.0000e+00 -1.0000e+00
        6  1    1    2  501    0 -2.2150866823e+01 -1.8391374854e+02 +3.1364499914e+02 4.0325812241e+02 1.7300000000e+02 0.0000e+00 -1.0000e+00
       -6  1    1    2    0  505 -1.4223947209e+01 +8.2108774912e+01 +1.5752760231e+02 2.4837092640e+02 1.7300000000e+02 0.0000e+00 1.0000e+00
       21  1    1    2  504  501 -8.0092602347e+00 +1.8667260711e+01 -5.3603610774e+02 5.3642084568e+02 0.0000000000e+00 0.0000e+00 -1.0000e+00
       21  1    1    2  505  502 +4.4384074267e+01 +8.3137712922e+01 +4.8863509314e+02 4.9764051243e+02 0.0000000000e+00 0.0000e+00 -1.0000e+00
<mgrwt>
<rscale>  4 0.21243581E+03</rscale>
<asrwt>0</asrwt>
<pdfrwt beam="1">  1       21 0.16226631E+00 0.21243581E+03</pdfrwt>
<pdfrwt beam="2">  1       21 0.97070678E-01 0.21243581E+03</pdfrwt>
<totfact> 0.20822365E+02</totfact>
</mgrwt>
</event>
<event>
 6      1 +2.5168241e+02 2.05804900e+02 7.54677100e-03 1.09842800e-01
       21 -1    0    0  505  502 +0.0000000000e+00 +0.0000000000e+00 +7.3411345478e+02 7.3411345478e+02 0.0000000000e+00 0.0000e+00 -1.0000e+00
       21 -1    0    0  501  503 -0.0000000000e+00 -0.0000000000e+00 -2.4207425638e+02 2.4207425638e+02 0.0000000000e+00 0.0000e+00 1.0000e+00
        6  1    1    2  501    0 -1.0072237039e+02 -1.5276901004e+01 -1.0685906927e+02 2.2743403502e+02 1.7300000000e+02 0.0000e+00 1.0000e+00
       -6  1    1    2    0  504 +1.5075918596e+02 -3.1889760958e+01 +1.6350377115e+02 2.8356264244e+02 1.7300000000e+02 0.0000e+00 1.0000e+00
       21  1    1    2  504  502 +3.3026498230e+01 -3.0154954980e-01 +1.9329219244e+01 3.8268253606e+01 0.0000000000e+00 0.0000e+00 1.0000e+00
       21  1    1    2  505  503 -8.3063313804e+01 +4.7468211512e+01 +4.1606527727e+02 4.2692278009e+02 0.0000000000e+00 0.0000e+00 -1.0000e+00
<mgrwt>
<rscale>  4 0.20580493E+03</rscale>
<asrwt>0</asrwt>
<pdfrwt beam="1">  1       21 0.11294053E+00 0.20580493E+03</pdfrwt>
<pdfrwt beam="2">  1       21 0.37242194E-01 0.20580493E+03</pdfrwt>
<totfact> 0.42144462E+03</totfact>
</mgrwt>
</event>
<event>
 6      1 +2.5168241e+02 2.26767200e+02 7.54677100e-03 1.11896800e-01
       21 -1    0    0  501  502 +0.0000000000e+00 +0.0000000000e+00 +2.5388393696e+02 2.5388393696e+02 0.0000000000e+00 0.0000e+00 -1.0000e+00
       21 -1    0    0  504  503 -0.0000000000e+00 -0.0000000000e+00 -6.0096248405e+02 6.0096248405e+02 0.0000000000e+00 0.0000e+00 -1.0000e+00
        6  1    1    2  501    0 -1.2101077881e+02 -4.2167016360e+01 -1.6020529390e+02 2.6835871898e+02 1.7300000000e+02 0.0000e+00 -1.0000e+00
       -6  1    1    2    0  503 +1.5878462592e+02 -1.3500493788e+02 -2.7163933935e+02 3.8360894327e+02 1.7300000000e+02 0.0000e+00 -1.0000e+00
       21  1    1    2  504  505 -3.0091311542e+01 +1.5112047023e+02 +8.4459216643e+01 1.7571637040e+02 0.0000000000e+00 0.0000e+00 -1.0000e+00
       21  1    1    2  505  502 -7.6825355650e+00 +2.6051484013e+01 +3.0686952075e-01 2.7162388350e+01 0.0000000000e+00 0.0000e+00 -1.0000e+00
<mgrwt>
<rscale>  4 0.22676719E+03</rscale>
<asrwt>0</asrwt>
<pdfrwt beam="1">  1       21 0.39059067E-01 0.22676719E+03</pdfrwt>
<pdfrwt beam="2">  1       21 0.92455766E-01 0.22676719E+03</pdfrwt>
<totfact> 0.60847409E+03</totfact>
</mgrwt>
</event>
<event>
 6      1 +2.5168241e+02 3.29339900e+02 7.54677100e-03 1.12989000e-01
       21 -1    0    0  503  502 +0.0000000000e+00 +0.0000000000e+00 +1.1343491744e+03 1.1343491744e+03 0.0000000000e+00 0.0000e+00 -1.0000e+00
       21 -1    0    0  504  503 -0.0000000000e+00 -0.0000000000e+00 -7.4861752133e+02 7.4861752133e+02 0.0000000000e+00 0.0000e+00 1.0000e+00
        6  1    1    2  501    0 -1.1805081869e+02 -3.0560555511e+02 +6.7333123045e+02 7.6852761629e+02 1.7300000000e+02 0.0000e+00 1.0000e+00
       -6  1    1    2    0  502 +1.5139661663e+02 +1.8055644751e+02 +3.5376714230e+02 4.5891367079e+02 1.7300000000e+02 0.0000e+00 -1.0000e+00
       21  1    1    2  504  505 -2.9769773869e+01 +8.2565394554e+01 -5.0750179079e+02 5.1503529148e+02 0.0000000000e+00 0.0000e+00 1.0000e+00
       21  1    1    2  505  501 -3.5760240690e+00 +4.2483713047e+01 -1.3386492892e+02 1.4049011715e+02 0.0000000000e+00 0.0000e+00 1.0000e+00
<mgrwt>
<rscale>  4 0.32933987E+03</rscale>
<asrwt>0</asrwt>
<pdfrwt beam="1">  1       21 0.17451526E+00 0.32933987E+03</pdfrwt>
<pdfrwt beam="2">  1       21 0.11517193E+00 0.32933987E+03</pdfrwt>
<totfact> 0.10034441E+02</totfact>
</mgrwt>
</event>
<event>
 6      1 +2.5168241e+02 2.35926200e+02 7.54677100e-03 1.16820100e-01
       21 -1    0    0  505  502 +0.0000000000e+00 +0.0000000000e+00 +3.3024055350e+02 3.3024055350e+02 0.0000000000e+00 0.0000e+00 1.0000e+00
       21 -1    0    0  504  503 -0.0000000000e+00 -0.0000000000e+00 -4.5681197377e+02 4.5681197377e+02 0.0000000000e+00 0.0000e+00 1.0000e+00
        6  1    1    2  501    0 +2.1544265786e+02 +6.9206566603e+01 -1.1610808252e+02 3.0759579729e+02 1.7300000000e+02 0.0000e+00 1.0000e+00
       -6  1    1    2    0  503 -7.4081089050e+01 -9.2012330132e+01 -4.2255347235e+01 2.1370257608e+02 1.7300000000e+02 0.0000e+00 1.0000e+00
       21  1    1    2  504  502 -6.4228895593e+01 -1.8618956870e+01 -9.2241873557e+01 1.1393234756e+02 0.0000000000e+00 0.0000e+00 1.0000e+00
       21  1    1    2  505  501 -7.7132673213e+01 +4.1424720400e+01 +1.2403388304e+02 1.5182180634e+02 0.0000000000e+00 0.0000e+00 1.0000e+00
<mgrwt>
<rscale>  4 0.23592623E+03</rscale>
<asrwt>0</asrwt>
<pdfrwt beam="1">  1       21 0.50806239E-01 0.23592623E+03</pdfrwt>
<pdfrwt beam="2">  1       21 0.70278765E-01 0.23592623E+03</pdfrwt>
<totfact> 0.65685580E+03</totfact>
</mgrwt>
</event>
<event>
 6      1 +2.5168241e+02 1.73302300e+02 7.54677100e-03 1.07064900e-01
       21 -1    0    0  504  502 +0.0000000000e+00 +0.0000000000e+00 +5.1123936407e+02 5.1123936407e+02 0.0000000000e+00 0.0000e+00 -1.0000e+00
       21 -1    0    0  501  503 -0.0000000000e+00 -0.0000000000e+00 -2.9602304740e+02 2.9602304740e+02 0.0000000000e+00 0.0000e+00 -1.0000e+00
        6  1    1    2  501    0 -9.8237947096e+00 -9.1958028484e+00 -1.7933239470e+02 2.4953993172e+02 1.7300000000e+02 0.0000e+00 -1.0000e+00
       -6  1    1    2    0  505 -8.8561408340e+01 -1.4920331307e+01 +8.2005793315e+01 2.1147030399e+02 1.7300000000e+02 0.0000e+00 -1.0000e+00
       21  1    1    2  504  503 +7.1138708130e+01 -3.1574716151e+01 +1.1232631360e+02 1.3665606178e+02 0.0000000000e+00 0.0000e+00 -1.0000e+00
       21  1    1    2  505  502 +2.7246494920e+01 +5.5690850307e+01 +2.0021660446e+02 2.0959611398e+02 0.0000000000e+00 0.0000e+00 -1.0000e+00
<mgrwt>
<rscale>  4 0.17330230E+03</rscale>
<asrwt>0</asrwt>
<pdfrwt beam="1">  1       21 0.78652210E-01 0.17330230E+03</pdfrwt>
<pdfrwt beam="2">  1       21 0.45542007E-01 0.17330230E+03</pdfrwt>
<totfact> 0.67061056E+03</totfact>
</mgrwt>
</event>
<event>
 6      1 +2.5168241e+02 2.52687700e+02 7.54677100e-03 1.15942100e-01
       21 -1    0    0  504  502 +0.0000000000e+00 +0.0000000000e+00 +2.3080608912e+03 2.3080608912e+03 0.0000000000e+00 0.0000e+00 -1.0000e+00
       21 -1    0    0  501  503 -0.0000000000e+00 -0.0000000000e+00 -2.4694007383e+02 2.4694007383e+02 0.0000000000e+00 0.0000e+00 1.0000e+00
        6  1    1    2  501    0 +2.4879117919e+00 +2.5378738565e+02 +1.4292732700e+03 1.4619046847e+03 1.7300000000e+02 0.0000e+00 -1.0000e+00
       -6  1    1    2    0  502 -8.4765532914e+01 -1.0990175943e+02 +8.1347549820e+02 8.4316960243e+02 1.7300000000e+02 0.0000e+00 -1.0000e+00
       21  1    1    2  504  505 +1.5503301820e+01 -6.8845015507e+01 -6.4255634016e+01 9.5439902715e+01 0.0000000000e+00 0.0000e+00 1.0000e+00
       21  1    1    2  505  503 +6.6774319303e+01 -7.5040610712e+01 -1.1737231677e+02 1.5448677523e+02 0.0000000000e+00 0.0000e+00 1.0000e+00
<mgrwt>
<rscale>  4 0.25268766E+03</rscale>
<asrwt>0</asrwt>
<pdfrwt beam="1">  1       21 0.35508628E+00 0.25268766E+03</pdfrwt>
<pdfrwt beam="2">  1       21 0.37990782E-01 0.25268766E+03</pdfrwt>
<totfact> 0.99496387E+01</totfact>
</mgrwt>
</event>
<event>
 6      1 +2.5168241e+02 2.95212100e+02 7.54677100e-03 1.12068800e-01
       21 -1    0    0  504  502 +0.0000000000e+00 +0.0000000000e+00 +5.0424020876e+02 5.0424020876e+02 0.0000000000e+00 0.0000e+00 1.0000e+00
       21 -1    0    0  502  503 -0.0000000000e+00 -0.0000000000e+00 -9.8739202022e+02 9.8739202022e+02 0.0000000000e+00 0.0000e+00 1.0000e+00
        6  1    1    2  501    0 -2.3317853181e+02 +2.4729353496e+02 +2.7711665340e+02 4.7143287934e+02 1.7300000000e+02 0.0000e+00 1.0000e+00
       -6  1    1    2    0  505 +1.3149707705e+02 -3.7932495467e+01 -1.2528103773e+01 2.2094413065e+02 1.7300000000e+02 0.0000e+00 1.0000e+00
       21  1    1    2  504  501 +7.7412950196e+01 -2.2414295667e+02 -5.4258531448e+02 5.9214158220e+02 0.0000000000e+00 0.0000e+00 1.0000e+00
       21  1    1    2  505  503 +2.4268504564e+01 +1.4781917177e+01 -2.0515504662e+02 2.0711363678e+02 0.0000000000e+00 0.0000e+00 1.0000e+00
<mgrwt>
<rscale>  4 0.27503391E+03</rscale>
<asrwt>0</asrwt>
<pdfrwt beam="1">  1       21 0.77575418E-01 0.29521212E+03</pdfrwt>
<pdfrwt beam="2">  1       21 0.15190646E+00 0.29521212E+03</pdfrwt>
<totfact> 0.38665075E+02</totfact>
</mgrwt>
</event>
<event>
 6      1 +2.5168241e+02 2.21152100e+02 7.54677100e-03 1.16820100e-01
       21 -1    0    0  505  502 +0.0000000000e+00 +0.0000000000e+00 +1.7012206059e+02 1.7012206059e+02 0.0000000000e+00 0.0000e+00 1.0000e+00
       21 -1    0    0  501  503 -0.0000000000e+00 -0.0000000000e+00 -1.2092684674e+03 1.2092684674e+03 0.0000000000e+00 0.0000e+00 1.0000e+00
        6  1    1    2  501    0 +1.3516457595e+02 -7.1671879781e+01 -4.9585025545e-02 2.3094441626e+02 1.7300000000e+02 0.0000e+00 1.0000e+00
       -6  1    1    2    0  502 -1.1350452651e+02 +1.1188553173e+02 -5.6473024375e+02 6.1176049067e+02 1.7300000000e+02 0.0000e+00 1.0000e+00
       21  1    1    2  504  503 +2.6250628403e+01 -1.5711111783e+01 -4.8143909945e+02 4.8241013775e+02 0.0000000000e+00 0.0000e+00 1.0000e+00
       21  1    1    2  505  504 -4.7910677847e+01 -2.4502540167e+01 +7.0725214358e+00 5.4275483286e+01 0.0000000000e+00 0.0000e+00 1.0000e+00
<mgrwt>
<rscale>  4 0.22115206E+03</rscale>
<asrwt>0</asrwt>
<pdfrwt beam="1">  1       21 0.26172625E-01 0.22115206E+03</pdfrwt>
<pdfrwt beam="2">  1       21 0.18604130E+00 0.22115206E+03</pdfrwt>
<totfact> 0.22371752E+03</totfact>
</mgrwt>
</event>
<event>
 6      1 +2.5168241e+02 3.07469200e+02 7.54677100e-03 9.87464100e-02
       21 -1    0    0  503  502 +0.0000000000e+00 +0.0000000000e+00 +1.2062688342e+03 1.2062688342e+03 0.0000000000e+00 0.0000e+00 -1.0000e+00
       21 -1    0    0  505  503 -0.0000000000e+00 -0.0000000000e+00 -2.1806723536e+02 2.1806723536e+02 0.0000000000e+00 0.0000e+00 -1.0000e+00
        6  1    1    2  501    0 +2.2393053829e+02 -1.4946000718e+02 +5.7606797170e+02 6.5898898909e+02 1.7300000000e+02 0.0000e+00 1.0000e+00
       -6  1    1    2    0  504 -1.7733842175e+02 +1.6405664479e+02 +5.2762393652e+02 6.0554068147e+02 1.7300000000e+02 0.0000e+00 -1.0000e+00
       21  1    1    2  504  502 -2.9493338296e+01 +1.3649926210e+01 +6.7437742528e+00 3.3191203361e+01 0.0000000000e+00 0.0000e+00 1.0000e+00
       21  1    1    2  505  501 -1.7098778246e+01 -2.8246563814e+01 -1.2223408359e+02 1.2661519568e+02 0.0000000000e+00 0.0000e+00 1.0000e+00
<mgrwt>
<rscale>  4 0.30746916E+03</rscale>
<asrwt>0</asrwt>
<pdfrwt beam="1">  1       21 0.18557982E+00 0.30746916E+03</pdfrwt>
<pdfrwt beam="2">  1       21 0.33548806E-01 0.30746916E+03</pdfrwt>
<totfact> 0.12962368E+03</totfact>
</mgrwt>
</event>
<event>
 6      1 +2.5168241e+02 2.64213900e+02 7.54677100e-03 1.16820100e-01
       21 -1    0    0  501  502 +0.0000000000e+00 +0.0000000000e+00 +2.0024873940e+02 2.0024873940e+02 0.0000000000e+00 0.0000e+00 1.0000e+00
       21 -1    0    0  504  503 -0.0000000000e+00 -0.0000000000e+00 -3.0083915834e+03 3.0083915834e+03 0.0000000000e+00 0.0000e+00 -1.0000e+00
        6  1    1    2  501    0 -1.0862559824e+02 -2.4336373209e+02 -8.5843905963e+02 9.1535350865e+02 1.7300000000e+02 0.0000e+00 -1.0000e+00
       -6  1    1    2    0  503 +4.3319749549e+01 +1.5605254555e+02 -2.1503908291e+02 3.1999969508e+02 1.7300000000e+02 0.0000e+00 1.0000e+00
       21  1    1    2  504  505 +3.6866665667e+01 +6.7682422634e+01 -1.8506548783e+03 1.8522590370e+03 0.0000000000e+00 0.0000e+00 -1.0000e+00
       21  1    1    2  505  502 +2.8439183027e+01 +1.9628763912e+01 +1.1599017692e+02 1.2102808205e+02 0.0000000000e+00 0.0000e+00 1.0000e+00
<mgrwt>
<rscale>  4 0.26421388E+03</rscale>
<asrwt>0</asrwt>
<pdfrwt beam="1">  1       21 0.30807502E-01 0.26421388E+03</pdfrwt>
<pdfrwt beam="2">  1       21 0.46282942E+00 0.26421388E+03</pdfrwt>
<totfact> 0.30604144E+01</totfact>
</mgrwt>
</event>
<event>
 6      1 +2.5168241e+02 3.21379700e+02 7.54677100e-03 1.07064900e-01
       21 -1    0    0  504  502 +0.0000000000e+00 +0.0000000000e+00 +4.0366543106e+02 4.0366543106e+02 0.0000000000e+00 0.0000e+00 1.0000e+00
       21 -1    0    0  501  503 -0.0000000000e+00 -0.0000000000e+00 -6.1600202383e+02 6.1600202383e+02 0.0000000000e+00 0.0000e+00 -1.0000e+00
        6  1    1    2  501    0 +2.9511403694e+02 +1.3517875221e+02 -3.8261065961e+02 5.3074052672e+02 1.7300000000e+02 0.0000e+00 -1.0000e+00
       -6  1    1    2    0  505 -1.4048327291e+02 -1.2008284811e+02 -1.4231383883e+00 2.5315304798e+02 1.7300000000e+02 0.0000e+00 1.0000e+00
       21  1    1    2  504  503 -9.4842831634e+01 -2.6122702119e-01 +7.4082046788e+01 1.2034691773e+02 0.0000000000e+00 0.0000e+00 1.0000e+00
       21  1    1    2  505  502 -5.9787932398e+01 -1.4834677084e+01 +9.7615158444e+01 1.1542696246e+02 0.0000000000e+00 0.0000e+00 1.0000e+00
<mgrwt>
<rscale>  4 0.32137972E+03</rscale>
<asrwt>0</asrwt>
<pdfrwt beam="1">  1       21 0.62102374E-01 0.32137972E+03</pdfrwt>
<pdfrwt beam="2">  1       21 0.94769542E-01 0.32137972E+03</pdfrwt>
<totfact> 0.20479812E+03</totfact>
</mgrwt>
</event>
<event>
 6      1 +2.5168241e+02 2.49201800e+02 7.54677100e-03 1.06249800e-01
       21 -1    0    0  504  502 +0.0000000000e+00 +0.0000000000e+00 +6.3095827581e+02 6.3095827581e+02 0.0000000000e+00 0.0000e+00 1.0000e+00
       21 -1    0    0  502  503 -0.0000000000e+00 -0.0000000000e+00 -1.7980190917e+02 1.7980190917e+02 0.0000000000e+00 0.0000e+00 1.0000e+00
        6  1    1    2  501    0 +4.1903584812e+01 +6.7861092963e+00 +3.6012537617e+01 1.8173569975e+02 1.7300000000e+02 0.0000e+00 1.0000e+00
       -6  1    1    2    0  503 +1.3458747221e+02 -7.2975712527e+01 +8.6068749147e+01 2.4652803466e+02 1.7300000000e+02 0.0000e+00 -1.0000e+00
       21  1    1    2  504  505 -1.0227085985e+02 +3.7986674523e+01 +2.3707249194e+02 2.6097065477e+02 0.0000000000e+00 0.0000e+00 1.0000e+00
       21  1    1    2  505  501 -7.4220197168e+01 +2.8202928708e+01 +9.2002587940e+01 1.2152579579e+02 0.0000000000e+00 0.0000e+00 -1.0000e+00
<mgrwt>
<rscale>  4 0.22913886E+03</rscale>
<asrwt>0</asrwt>
<pdfrwt beam="1">  1       21 0.97070503E-01 0.24920177E+03</pdfrwt>
<pdfrwt beam="2">  1       21 0.27661833E-01 0.24920177E+03</pdfrwt>
<totfact> 0.10599304E+04</totfact>
</mgrwt>
</event>
<event>
 6      1 +2.5168241e+02 2.68974400e+02 7.54677100e-03 1.16820100e-01
       21 -1    0    0  504  502 +0.0000000000e+00 +0.0000000000e+00 +1.4633377481e+02 1.4633377481e+02 0.0000000000e+00 0.0000e+00 -1.0000e+00
       21 -1    0    0  501  503 -0.0000000000e+00 -0.0000000000e+00 -6.7386855171e+02 6.7386855171e+02 0.0000000000e+00 0.0000e+00 1.0000e+00
        6  1    1    2  501    0 +6.5073316111e+01 +1.9754926769e+02 -2.6237324055e+02 3.7686730688e+02 1.7300000000e+02 0.0000e+00 -1.0000e+00
       -6  1    1    2    0  505 -5.4472266516e+01 -1.9725119743e+02 -2.5495344150e+02 3.6987230235e+02 1.7300000000e+02 0.0000e+00 1.0000e+00
       21  1    1    2  504  503 -1.7236700844e+01 +2.2118872111e+01 -3.1265804684e+01 4.1998796435e+01 0.0000000000e+00 0.0000e+00 -1.0000e+00
       21  1    1    2  505  502 +6.6356512487e+00 -2.2416942374e+01 +2.1057709831e+01 3.1463920866e+01 0.0000000000e+00 0.0000e+00 -1.0000e+00
<mgrwt>
<rscale>  4 0.26897444E+03</rscale>
<asrwt>0</asrwt>
<pdfrwt beam="1">  1       21 0.22512888E-01 0.26897444E+03</pdfrwt>
<pdfrwt beam="2">  1       21 0.10367209E+00 0.26897444E+03</pdfrwt>
<totfact> 0.13312626E+04</totfact>
</mgrwt>
</event>
<event>
 6      1 +2.5168241e+02 1.85660900e+02 7.54677100e-03 1.07240600e-01
       21 -1    0    0  505  502 +0.0000000000e+00 +0.0000000000e+00 +6.2262012214e+01 6.2262012214e+01 0.0000000000e+00 0.0000e+00 1.0000e+00
       21 -1    0    0  504  503 -0.0000000000e+00 -0.0000000000e+00 -1.2137409410e+03 1.2137409410e+03 0.0000000000e+00 0.0000e+00 -1.0000e+00
        6  1    1    2  501    0 +3.1134690463e+01 -5.8894284689e+01 -7.4134961640e+02 7.6417678548e+02 1.7300000000e+02 0.0000e+00 -1.0000e+00
       -6  1    1    2    0  502 -7.5307922692e+01 +1.2011253318e+00 -1.5442935745e+02 2.4382401925e+02 1.7300000000e+02 0.0000e+00 1.0000e+00
       21  1    1    2  504  501 +1.8900038228e+01 +1.6247251722e+01 -1.4499781445e+02 1.4712427002e+02 0.0000000000e+00 0.0000e+00 1.0000e+00
       21  1    1    2  505  503 +2.5273194001e+01 +4.1445907635e+01 -1.1070214047e+02 1.2087787845e+02 0.0000000000e+00 0.0000e+00 1.0000e+00
<mgrwt>
<rscale>  4 0.18566093E+03</rscale>
<asrwt>0</asrwt>
<pdfrwt beam="1">  1       21 0.95787705E-02 0.18566093E+03</pdfrwt>
<pdfrwt beam="2">  1       21 0.18672939E+00 0.18566093E+03</pdfrwt>
<totfact> 0.14430740E+04</totfact>
</mgrwt>
</event>
<event>
 6      1 +2.5168241e+02 3.15017400e+02 7.54677100e-03 1.07064900e-01
       21 -1    0    0  504  502 +0.0000000000e+00 +0.0000000000e+00 +9.0981430519e+02 9.0981430519e+02 0.0000000000e+00 0.0000e+00 -1.0000e+00
       21 -1    0    0  501  503 -0.0000000000e+00 -0.0000000000e+00 -4.0525037094e+02 4.0525037094e+02 0.0000000000e+00 0.0000e+00 1.0000e+00
        6  1    1    2  501    0 -2.0070399913e+02 -2.2580271587e+02 +7.4455737426e-01 3.4813577254e+02 1.7300000000e+02 0.0000e+00 1.0000e+00
       -6  1    1    2    0  505 +1.8027713433e+02 +1.6197025600e+02 -1.3251623275e+02 3.2591986888e+02 1.7300000000e+02 0.0000e+00 1.0000e+00
       21  1    1    2  504  503 -1.9703507017e-01 +5.3727744980e+01 +4.7951606500e+02 4.8251670023e+02 0.0000000000e+00 0.0000e+00 -1.0000e+00
       21  1    1    2  505  502 +2.0623899868e+01 +1.0104714892e+01 +1.5681954463e+02 1.5849233447e+02 0.0000000000e+00 0.0000e+00 1.0000e+00
<mgrwt>
<rscale>  4 0.31501740E+03</rscale>
<asrwt>0</asrwt>
<pdfrwt beam="1">  1       21 0.13997143E+00 0.31501740E+03</pdfrwt>
<pdfrwt beam="2">  1       21 0.62346212E-01 0.31501740E+03</pdfrwt>
<totfact> 0.77141244E+02</totfact>
</mgrwt>
</event>
<event>
 6      1 +2.5168241e+02 1.74682200e+02 7.54677100e-03 1.11671100e-01
       21 -1    0    0  503  502 +0.0000000000e+00 +0.0000000000e+00 +1.8525230283e+03 1.8525230283e+03 0.0000000000e+00 0.0000e+00 1.0000e+00
       21 -1    0    0  501  503 -0.0000000000e+00 -0.0000000000e+00 -1.2824873738e+03 1.2824873738e+03 0.0000000000e+00 0.0000e+00 1.0000e+00
        6  1    1    2  501    0 +9.5646930108e+00 +4.2633154796e+01 -5.2059576857e+02 5.5032537966e+02 1.7300000000e+02 0.0000e+00 1.0000e+00
       -6  1    1    2    0  504 +1.9258807219e+01 -9.4864931460e+00 -7.3377426052e+02 7.5419795850e+02 1.7300000000e+02 0.0000e+00 -1.0000e+00
       21  1    1    2  504  505 -2.1942516633e+01 +1.5662429042e+00 +3.9357538153e+01 4.5088168764e+01 0.0000000000e+00 0.0000e+00 1.0000e+00
       21  1    1    2  505  502 -6.8809835968e+00 -3.4712904554e+01 +1.7850481454e+03 1.7853988953e+03 0.0000000000e+00 0.0000e+00 1.0000e+00
<mgrwt>
<rscale>  4 0.17468217E+03</rscale>
<asrwt>0</asrwt>
<pdfrwt beam="1">  1       21 0.28500354E+00 0.17468217E+03</pdfrwt>
<pdfrwt beam="2">  1       21 0.19730575E+00 0.17468217E+03</pdfrwt>
<totfact> 0.60591166E+00</totfact>
</mgrwt>
</event>
<event>
 6      1 +2.5168241e+02 3.12033700e+02 7.54677100e-03 1.15942100e-01
       21 -1    0    0  504  502 +0.0000000000e+00 +0.0000000000e+00 +2.6544839627e+02 2.6544839627e+02 0.0000000000e+00 0.0000e+00 1.0000e+00
       21 -1    0    0  501  503 -0.0000000000e+00 -0.0000000000e+00 -2.3535344595e+03 2.3535344595e+03 0.0000000000e+00 0.0000e+00 1.0000e+00
        6  1    1    2  501    0 +1.9561398932e+02 +2.2015098125e+02 +6.2139643535e+01 3.4716224256e+02 1.7300000000e+02 0.0000e+00 1.0000e+00
       -6  1    1    2    0  502 -9.0395757393e+01 -1.6942091719e+02 -2.3667012093e+02 3.5045197428e+02 1.7300000000e+02 0.0000e+00 -1.0000e+00
       21  1    1    2  504  505 -9.1928192400e+01 -7.8162624356e+01 -1.7916882647e+03 1.7957469271e+03 0.0000000000e+00 0.0000e+00 1.0000e+00
       21  1    1    2  505  503 -1.3290039524e+01 +2.7432560297e+01 -1.2186732109e+02 1.2562171175e+02 0.0000000000e+00 0.0000e+00 1.0000e+00
<mgrwt>
<rscale>  4 0.31203373E+03</rscale>
<asrwt>0</asrwt>
<pdfrwt beam="1">  1       21 0.40838215E-01 0.31203373E+03</pdfrwt>
<pdfrwt beam="2">  1       21 0.36208222E+00 0.31203373E+03</pdfrwt>
<totfact> 0.72622485E+01</totfact>
</mgrwt>
</event>
<event>
 6      1 +2.5168241e+02 4.88466500e+02 7.54677100e-03 1.17132900e-01
       21 -1    0    0  503  502 +0.0000000000e+00 +0.0000000000e+00 +1.0585643606e+03 1.0585643606e+03 0.0000000000e+00 0.0000e+00 1.0000e+00
       21 -1    0    0  504  503 -0.0000000000e+00 -0.0000000000e+00 -6.8330832944e+02 6.8330832944e+02 0.0000000000e+00 0.0000e+00 -1.0000e+00
        6  1    1    2  501    0 -2.7632799224e+02 -4.7149041929e+02 -2.5659576461e+02 6.2803722914e+02 1.7300000000e+02 0.0000e+00 -1.0000e+00
       -6  1    1    2    0  505 +5.8952652656e+01 +3.5989153788e+02 +3.6221102966e+02 5.4233123117e+02 1.7300000000e+02 0.0000e+00 1.0000e+00
       21  1    1    2  504  501 +1.3108778245e+02 +1.3665048603e+01 -1.0897876323e+02 1.7101786777e+02 0.0000000000e+00 0.0000e+00 1.0000e+00
       21  1    1    2  505  502 +8.6287557137e+01 +9.7933832805e+01 +3.7861952938e+02 4.0048636201e+02 0.0000000000e+00 0.0000e+00 1.0000e+00
<mgrwt>
<rscale>  4 0.48846648E+03</rscale>
<asrwt>0</asrwt>
<pdfrwt beam="1">  1       21 0.16285606E+00 0.48846648E+03</pdfrwt>
<pdfrwt beam="2">  1       21 0.10512436E+00 0.48846648E+03</pdfrwt>
<totfact> 0.13845196E+02</totfact>
</mgrwt>
</event>
<event>
 6      1 +2.5168241e+02 2.20678500e+02 7.54677100e-03 1.17132900e-01
       21 -1    0    0  505  502 +0.0000000000e+00 +0.0000000000e+00 +7.3585984103e+02 7.3585984103e+02 0.0000000000e+00 0.0000e+00 1.0000e+00
       21 -1    0    0  504  503 -0.0000000000e+00 -0.0000000000e+00 -1.1342731880e+02 1.1342731880e+02 0.0000000000e+00 0.0000e+00 -1.0000e+00
        6  1    1    2  501    0 -6.5292752921e+01 +1.0272911251e+02 +1.5392819154e+02 2.6160906386e+02 1.7300000000e+02 0.0000e+00 -1.0000e+00
       -6  1    1    2    0  502 +1.1171593254e+02 -1.1565991690e+02 +2.5389726646e+02 3.4677152115e+02 1.7300000000e+02 0.0000e+00 1.0000e+00
       21  1    1    2  504  501 -3.5619454766e+01 +4.5344942188e+01 +6.2611941091e+01 8.5118532102e+01 0.0000000000e+00 0.0000e+00 1.0000e+00
       21  1    1    2  505  503 -1.0803724855e+01 -3.2414137801e+01 +1.5199512313e+02 1.5578804273e+02 0.0000000000e+00 0.0000e+00 1.0000e+00
<mgrwt>
<rscale>  4 0.22067847E+03</rscale>
<asrwt>0</asrwt>
<pdfrwt beam="1">  1       21 0.11320920E+00 0.22067847E+03</pdfrwt>
<pdfrwt beam="2">  1       21 0.17450357E-01 0.22067847E+03</pdfrwt>
<totfact> 0.17794069E+04</totfact>
</mgrwt>
</event>
<event>
 6      1 +2.5168241e+02 1.73337100e+02 7.54677100e-03 1.09842800e-01
       21 -1    0    0  503  502 +0.0000000000e+00 +0.0000000000e+00 +3.2253760486e+02 3.2253760486e+02 0.0000000000e+00 0.0000e+00 -1.0000e+00
       21 -1    0    0  501  503 -0.0000000000e+00 -0.0000000000e+00 -3.0524017710e+02 3.0524017710e+02 0.0000000000e+00 0.0000e+00 1.0000e+00
        6  1    1    2  501    0 -1.3123279240e+01 -3.3743550476e+00 -1.8599607420e+02 2.5437599405e+02 1.7300000000e+02 0.0000e+00 1.0000e+00
       -6  1    1    2    0  504 +2.2330448250e+00 -2.8710498154e-01 +3.9411069726e+01 1.7744661545e+02 1.7300000000e+02 0.0000e+00 1.0000e+00
       21  1    1    2  504  505 +1.5305643679e+01 -2.1326146971e+01 -3.6583016080e+00 2.6503781688e+01 0.0000000000e+00 0.0000e+00 1.0000e+00
       21  1    1    2  505  502 -4.4154092639e+00 +2.4987607001e+01 +1.6754073383e+02 1.6945139078e+02 0.0000000000e+00 0.0000e+00 -1.0000e+00
<mgrwt>
<rscale>  4 0.17333709E+03</rscale>
<asrwt>0</asrwt>
<pdfrwt beam="1">  1       21 0.49621170E-01 0.17333709E+03</pdfrwt>
<pdfrwt beam="2">  1       21 0.46960027E-01 0.17333709E+03</pdfrwt>
<totfact> 0.17007597E+04</totfact>
</mgrwt>
</event>
<event>
 6      1 +2.5168241e+02 2.57733700e+02 7.54677100e-03 1.07064900e-01
       21 -1    0    0  505  502 +0.0000000000e+00 +0.0000000000e+00 +1.1976373527e+03 1.1976373527e+03 0.0000000000e+00 0.0000e+00 -1.0000e+00
       21 -1    0    0  504  503 -0.0000000000e+00 -0.0000000000e+00 -7.0035232602e+02 7.0035232602e+02 0.0000000000e+00 0.0000e+00 -1.0000e+00
        6  1    1    2  501    0 +2.2212475678e+02 -4.9104349139e+01 +1.1244189451e+02 3.0712021152e+02 1.7300000000e+02 0.0000e+00 -1.0000e+00
       -6  1    1    2    0  503 -1.8658813486e+02 +6.8566183197e+00 -5.6545801992e+02 6.2010798864e+02 1.7300000000e+02 0.0000e+00 -1.0000e+00
       21  1    1    2  504  502 -1.0010978047e+02 +1.6176928604e+01 +7.8309425830e+02 7.8963300244e+02 0.0000000000e+00 0.0000e+00 -1.0000e+00
       21  1    1    2  505  501 +6.4573158543e+01 +2.6070802215e+01 +1.6720689378e+02 1.8112847612e+02 0.0000000000e+00 0.0000e+00 -1.0000e+00
<mgrwt>
<rscale>  4 0.25773375E+03</rscale>
<asrwt>0</asrwt>
<pdfrwt beam="1">  1       21 0.18425190E+00 0.25773375E+03</pdfrwt>
<pdfrwt beam="2">  1       21 0.10774651E+00 0.25773375E+03</pdfrwt>
<totfact> 0.10800342E+02</totfact>
</mgrwt>
</event>
<event>
 6      1 +2.5168241e+02 1.82897500e+02 7.54677100e-03 1.07240600e-01
       21 -1    0    0  505  502 +0.0000000000e+00 +0.0000000000e+00 +2.8517072725e+02 2.8517072725e+02 0.0000000000e+00 0.0000e+00 -1.0000e+00
       21 -1    0    0  504  503 -0.0000000000e+00 -0.0000000000e+00 -1.2153603183e+03 1.2153603183e+03 0.0000000000e+00 0.0000e+00 -1.0000e+00
        6  1    1    2  501    0 +4.0572896622e+00 -1.5329464807e+02 -1.3091999802e+02 2.6567791893e+02 1.7300000000e+02 0.0000e+00 1.0000e+00
       -6  1    1    2    0  502 -1.9220540850e+01 +5.0252445802e+01 +1.6031588100e+02 2.4191924107e+02 1.7300000000e+02 0.0000e+00 -1.0000e+00
       21  1    1    2  504  501 +2.6341071743e+01 -2.9738649032e+01 -2.0998282959e+01 4.4935144309e+01 0.0000000000e+00 0.0000e+00 -1.0000e+00
       21  1    1    2  505  503 -1.1177820555e+01 +1.3278085130e+02 -9.3858719107e+02 9.4799874124e+02 0.0000000000e+00 0.0000e+00 -1.0000e+00
<mgrwt>
<rscale>  4 0.18289753E+03</rscale>
<asrwt>0</asrwt>
<pdfrwt beam="1">  1       21 0.43872419E-01 0.18289753E+03</pdfrwt>
<pdfrwt beam="2">  1       21 0.18697851E+00 0.18289753E+03</pdfrwt>
<totfact> 0.82450850E+02</totfact>
</mgrwt>
</event>
<event>
 6      1 +2.5168241e+02 2.26149000e+02 7.54677100e-03 1.07064900e-01
       21 -1    0    0  505  502 +0.0000000000e+00 +0.0000000000e+00 +1.0809114453e+03 1.0809114453e+03 0.0000000000e+00 0.0000e+00 1.0000e+00
       21 -1    0    0  504  503 -0.0000000000e+00 -0.0000000000e+00 -2.0929932320e+03 2.0929932320e+03 0.0000000000e+00 0.0000e+00 1.0000e+00
        6  1    1    2  501    0 -1.8480467620e+01 +1.3994953872e+02 -1.6103904964e+02 2.7529979401e+02 1.7300000000e+02 0.0000e+00 -1.0000e+00
       -6  1    1    2    0  503 -8.0316583477e+01 +1.1948426681e+02 -1.8186447397e+03 1.8325187401e+03 1.7300000000e+02 0.0000e+00 1.0000e+00
       21  1    1    2  504  502 +2.9225493486e+01 -2.6111417291e+02 +3.1682110953e+02 4.1159489332e+02 0.0000000000e+00 0.0000e+00 1.0000e+00
       21  1    1    2  505  501 +6.9571557610e+01 +1.6803673767e+00 +6.5078089309e+02 6.5449124980e+02 0.0000000000e+00 0.0000e+00 1.0000e+00
<mgrwt>
<rscale>  4 0.22531979E+03</rscale>
<asrwt>0</asrwt>
<pdfrwt beam="1">  1       21 0.16629407E+00 0.22614898E+03</pdfrwt>
<pdfrwt beam="2">  1       21 0.32199896E+00 0.22614898E+03</pdfrwt>
<totfact> 0.54032997E+00</totfact>
</mgrwt>
</event>
<event>
 6      1 +2.5168241e+02 1.80593400e+02 7.54677100e-03 1.06249800e-01
       21 -1    0    0  503  502 +0.0000000000e+00 +0.0000000000e+00 +2.4130986317e+02 2.4130986317e+02 0.0000000000e+00 0.0000e+00 -1.0000e+00
       21 -1    0    0  504  503 -0.0000000000e+00 -0.0000000000e+00 -1.2725508808e+03 1.2725508808e+03 0.0000000000e+00 0.0000e+00 1.0000e+00
        6  1    1    2  501    0 -5.7939306308e+00 -3.2819462682e+01 -9.0937495307e+02 9.2628423933e+02 1.7300000000e+02 0.0000e+00 1.0000e+00
       -6  1    1    2    0  502 +1.0141747763e+02 +1.3801374896e+02 -2.4480726954e+02 3.4524324597e+02 1.7300000000e+02 0.0000e+00 1.0000e+00
       21  1    1    2  504  505 +4.0443377576e+01 -2.4735076428e+01 +1.1089479200e+01 4.8687445451e+01 0.0000000000e+00 0.0000e+00 -1.0000e+00
       21  1    1    2  505  501 -1.3606692457e+02 -8.0459209851e+01 +1.1185172579e+02 1.9364581321e+02 0.0000000000e+00 0.0000e+00 -1.0000e+00
<mgrwt>
<rscale>  4 0.18059341E+03</rscale>
<asrwt>0</asrwt>
<pdfrwt beam="1">  1       21 0.37124595E-01 0.18059341E+03</pdfrwt>
<pdfrwt beam="2">  1       21 0.19577706E+00 0.18059341E+03</pdfrwt>
<totfact> 0.10144588E+03</totfact>
</mgrwt>
</event>
<event>
 6      1 +2.5168241e+02 2.21534000e+02 7.54677100e-03 1.11471900e-01
       21 -1    0    0  503  502 +0.0000000000e+00 +0.0000000000e+00 +5.8504358991e+02 5.8504358991e+02 0.0000000000e+00 0.0000e+00 1.0000e+00
       21 -1    0    0  501  503 -0.0000000000e+00 -0.0000000000e+00 -5.4571679178e+02 5.4571679178e+02 0.0000000000e+00 0.0000e+00 1.0000e+00
        6  1    1    2  501    0 -1.3986594634e+02 +1.0054983437e+02 +3.6195644459e+02 4.3659388443e+02 1.7300000000e+02 0.0000e+00 1.0000e+00
       -6  1    1    2    0  504 +1.0612721752e+02 -8.5481050153e+01 -4.6016452362e+02 5.1014741500e+02 1.7300000000e+02 0.0000e+00 1.0000e+00
       21  1    1    2  504  505 +4.9801857813e+01 -4.2535127155e+01 +3.0300355087e+01 7.2163519884e+01 0.0000000000e+00 0.0000e+00 1.0000e+00
       21  1    1    2  505  502 -1.6063128995e+01 +2.7466342937e+01 +1.0723452208e+02 1.1185556237e+02 0.0000000000e+00 0.0000e+00 1.0000e+00
<mgrwt>
<rscale>  4 0.22153400E+03</rscale>
<asrwt>0</asrwt>
<pdfrwt beam="1">  1       21 0.90006706E-01 0.22153400E+03</pdfrwt>
<pdfrwt beam="2">  1       21 0.83956430E-01 0.22153400E+03</pdfrwt>
<totfact> 0.12604443E+03</totfact>
</mgrwt>
</event>
<event>
 6      1 +2.5168241e+02 1.79092700e+02 7.54677100e-03 1.07064900e-01
       21 -1    0    0  505  502 +0.0000000000e+00 +0.0000000000e+00 +1.8040595375e+03 1.8040595375e+03 0.0000000000e+00 0.0000e+00 -1.0000e+00
       21 -1    0    0  504  503 -0.0000000000e+00 -0.0000000000e+00 -1.3851096152e+02 1.3851096152e+02 0.0000000000e+00 0.0000e+00 1.0000e+00
        6  1    1    2  501    0 +5.7288425090e+01 -3.8076478608e+01 +2.2720764627e+02 2.9374154693e+02 1.7300000000e+02 0.0000e+00 1.0000e+00
       -6  1    1    2    0  503 -6.3768458712e+00 +4.3085217284e+01 +1.2992975997e+01 1.7887095219e+02 1.7300000000e+02 0.0000e+00 1.0000e+00
       21  1    1    2  504  502 -9.1759373093e+01 +1.4884126079e+02 +4.7064874010e+02 5.0207941605e+02 0.0000000000e+00 0.0000e+00 -1.0000e+00
       21  1    1    2  505  501 +4.0847793874e+01 -1.5384999946e+02 +9.5469921364e+02 9.6787858387e+02 0.0000000000e+00 0.0000e+00 -1.0000e+00
<mgrwt>
<rscale>  4 0.17909273E+03</rscale>
<asrwt>0</asrwt>
<pdfrwt beam="1">  1       21 0.27754760E+00 0.17909273E+03</pdfrwt>
<pdfrwt beam="2">  1       21 0.21309380E-01 0.17909273E+03</pdfrwt>
<totfact> 0.95985654E+02</totfact>
</mgrwt>
</event>
<event>
 6      1 +2.5168241e+02 2.02491000e+02 7.54677100e-03 1.17132900e-01
       21 -1    0    0  503  502 +0.0000000000e+00 +0.0000000000e+00 +1.1627149375e+03 1.1627149375e+03 0.0000000000e+00 0.0000e+00 1.0000e+00
       21 -1    0    0  504  503 -0.0000000000e+00 -0.0000000000e+00 -1.7284432527e+02 1.7284432527e+02 0.0000000000e+00 0.0000e+00 1.0000e+00
        6  1    1    2  501    0 +4.9831517621e+01 +4.7707168426e+01 +1.5718167707e+02 2.4370932209e+02 1.7300000000e+02 0.0000e+00 -1.0000e+00
       -6  1    1    2    0  505 +4.0744907079e+01 -1.0992105388e+02 +7.4185612771e+02 7.7072842153e+02 1.7300000000e+02 0.0000e+00 1.0000e+00
       21  1    1    2  504  501 -9.1463562370e+01 +8.4804799912e+01 -8.0403838260e+01 1.4839883603e+02 0.0000000000e+00 0.0000e+00 1.0000e+00
       21  1    1    2  505  502 +8.8713767006e-01 -2.2590914459e+01 +1.7123664566e+02 1.7272268307e+02 0.0000000000e+00 0.0000e+00 1.0000e+00
<mgrwt>
<rscale>  4 0.20249104E+03</rscale>
<asrwt>0</asrwt>
<pdfrwt beam="1">  1       21 0.17887922E+00 0.20249104E+03</pdfrwt>
<pdfrwt beam="2">  1       21 0.26591435E-01 0.20249104E+03</pdfrwt>
<totfact> 0.24687469E+03</totfact>
</mgrwt>
</event>
<event>
 6      1 +2.5168241e+02 3.57405200e+02 7.54677100e-03 1.16820100e-01
       21 -1    0    0  505  502 +0.0000000000e+00 +0.0000000000e+00 +1.1908692292e+03 1.1908692292e+03 0.0000000000e+00 0.0000e+00 1.0000e+00
       21 -1    0    0  501  503 -0.0000000000e+00 -0.0000000000e+00 -2.4009727227e+02 2.4009727227e+02 0.0000000000e+00 0.0000e+00 -1.0000e+00
        6  1    1    2  501    0 -2.3651813856e+02 -2.3545031340e+02 +8.2882647274e+02 9.1008790886e+02 1.7300000000e+02 0.0000e+00 1.0000e+00
       -6  1    1    2    0  502 +2.0701881530e+02 +2.7376757153e+02 +7.5176082770e+01 3.9164514108e+02 1.7300000000e+02 0.0000e+00 -1.0000e+00
       21  1    1    2  504  503 -1.7214038718e+01 -4.8625587893e+01 -1.2491931226e+01 5.3073715460e+01 0.0000000000e+00 0.0000e+00 -1.0000e+00
       21  1    1    2  505  504 +4.6713361974e+01 +1.0308329768e+01 +5.9261332638e+01 7.6159736052e+01 0.0000000000e+00 0.0000e+00 1.0000e+00
<mgrwt>
<rscale>  4 0.35740523E+03</rscale>
<asrwt>0</asrwt>
<pdfrwt beam="1">  1       21 0.18321065E+00 0.35740523E+03</pdfrwt>
<pdfrwt beam="2">  1       21 0.36938042E-01 0.35740523E+03</pdfrwt>
<totfact> 0.10751925E+03</totfact>
</mgrwt>
</event>
<event>
 6      1 +2.5168241e+02 2.93600800e+02 7.54677100e-03 1.15942100e-01
       21 -1    0    0  504  502 +0.0000000000e+00 +0.0000000000e+00 +2.4728905855e+03 2.4728905855e+03 0.0000000000e+00 0.0000e+00 -1.0000e+00
       21 -1    0    0  501  503 -0.0000000000e+00 -0.0000000000e+00 -2.8294978001e+02 2.8294978001e+02 0.0000000000e+00 0.0000e+00 1.0000e+00
        6  1    1    2  501    0 +4.4585906569e+01 -3.9538834382e+01 +1.9068602804e+03 1.9156190518e+03 1.7300000000e+02 0.0000e+00 -1.0000e+00
       -6  1    1    2    0  502 +1.2196979278e+02 +2.0881085225e+02 +4.5285848313e+02 5.4174570429e+02 1.7300000000e+02 0.0000e+00 -1.0000e+00
       21  1    1    2  504  505 -2.7663448063e+01 -6.1615643612e+01 -6.5769914518e+01 9.4273196361e+01 0.0000000000e+00 0.0000e+00 1.0000e+00
       21  1    1    2  505  503 -1.3889225129e+02 -1.0765637426e+02 -1.0400804354e+02 2.0420241308e+02 0.0000000000e+00 0.0000e+00 1.0000e+00
<mgrwt>
<rscale>  4 0.26086538E+03</rscale>
<asrwt>0</asrwt>
<pdfrwt beam="1">  1       21 0.38044469E+00 0.29360079E+03</pdfrwt>
<pdfrwt beam="2">  1       21 0.43530737E-01 0.29360079E+03</pdfrwt>
<totfact> 0.50131004E+01</totfact>
</mgrwt>
</event>
<event>
 6      1 +2.5168241e+02 1.81563800e+02 7.54677100e-03 1.11910500e-01
       21 -1    0    0  501  502 +0.0000000000e+00 +0.0000000000e+00 +5.0573641593e+02 5.0573641593e+02 0.0000000000e+00 0.0000e+00 -1.0000e+00
       21 -1    0    0  505  503 -0.0000000000e+00 -0.0000000000e+00 -8.2910400721e+02 8.2910400721e+02 0.0000000000e+00 0.0000e+00 1.0000e+00
        6  1    1    2  501    0 +6.8395663489e+01 -7.2195918838e+00 +1.8877161206e+02 2.6512979993e+02 1.7300000000e+02 0.0000e+00 1.0000e+00
       -6  1    1    2    0  504 -3.9613536132e+01 -3.6938963605e+01 +2.4652380026e+02 3.0600114930e+02 1.7300000000e+02 0.0000e+00 -1.0000e+00
       21  1    1    2  504  503 -4.4752274716e+01 +1.8079872355e+01 -6.1155079288e+02 6.1345254108e+02 0.0000000000e+00 0.0000e+00 1.0000e+00
       21  1    1    2  505  502 +1.5970147360e+01 +2.6078683134e+01 -1.4711221072e+02 1.5025693283e+02 0.0000000000e+00 0.0000e+00 1.0000e+00
<mgrwt>
<rscale>  4 0.18156380E+03</rscale>
<asrwt>0</asrwt>
<pdfrwt beam="1">  1       21 0.77805603E-01 0.18156380E+03</pdfrwt>
<pdfrwt beam="2">  1       21 0.12755446E+00 0.18156380E+03</pdfrwt>
<totfact> 0.67219424E+02</totfact>
</mgrwt>
</event>
<event>
 6      1 +2.5168241e+02 2.45735000e+02 7.54677100e-03 1.12989000e-01
       21 -1    0    0  505  502 +0.0000000000e+00 +0.0000000000e+00 +1.2526875085e+03 1.2526875085e+03 0.0000000000e+00 0.0000e+00 -1.0000e+00
       21 -1    0    0  504  503 -0.0000000000e+00 -0.0000000000e+00 -8.0074770473e+01 8.0074770473e+01 0.0000000000e+00 0.0000e+00 -1.0000e+00
        6  1    1    2  501    0 -3.2095099300e+00 -8.2897991949e+01 +3.1928768921e+02 3.7249967316e+02 1.7300000000e+02 0.0000e+00 1.0000e+00
       -6  1    1    2    0  502 +1.7114008935e+02 +4.2171678930e+00 +4.6489137543e+02 5.2474727788e+02 1.7300000000e+02 0.0000e+00 -1.0000e+00
       21  1    1    2  504  501 -1.2359316145e+02 +8.2472595390e+01 +3.3132907815e+02 3.6311975514e+02 0.0000000000e+00 0.0000e+00 -1.0000e+00
       21  1    1    2  505  503 -4.4337417967e+01 -3.7917713346e+00 +5.7104595191e+01 7.2395572749e+01 0.0000000000e+00 0.0000e+00 -1.0000e+00
<mgrwt>
<rscale>  4 0.23099257E+03</rscale>
<asrwt>0</asrwt>
<pdfrwt beam="1">  1       21 0.19272114E+00 0.24573499E+03</pdfrwt>
<pdfrwt beam="2">  1       21 0.12319196E-01 0.24573499E+03</pdfrwt>
<totfact> 0.80427873E+03</totfact>
</mgrwt>
</event>
<event>
 6      1 +2.5168241e+02 2.20556000e+02 7.54677100e-03 1.15942100e-01
       21 -1    0    0  504  502 +0.0000000000e+00 +0.0000000000e+00 +1.2077456474e+03 1.2077456474e+03 0.0000000000e+00 0.0000e+00 1.0000e+00
       21 -1    0    0  501  503 -0.0000000000e+00 -0.0000000000e+00 -4.2945306089e+02 4.2945306089e+02 0.0000000000e+00 0.0000e+00 1.0000e+00
        6  1    1    2  501    0 +4.0300663493e+00 -1.0929933073e+02 +3.9806142162e+02 4.4759857072e+02 1.7300000000e+02 0.0000e+00 1.0000e+00
       -6  1    1    2    0  502 -1.8429422267e+02 +8.5585525564e+01 +7.3034554196e+02 7.7757498247e+02 1.7300000000e+02 0.0000e+00 1.0000e+00
       21  1    1    2  504  505 +1.7474722401e+02 -1.7403305924e+01 -2.7763506032e+02 3.2851285223e+02 0.0000000000e+00 0.0000e+00 1.0000e+00
       21  1    1    2  505  503 +5.5169323100e+00 +4.1117111085e+01 -7.2479316775e+01 8.3512302844e+01 0.0000000000e+00 0.0000e+00 1.0000e+00
<mgrwt>
<rscale>  4 0.22055596E+03</rscale>
<asrwt>0</asrwt>
<pdfrwt beam="1">  1       21 0.18580702E+00 0.22055596E+03</pdfrwt>
<pdfrwt beam="2">  1       21 0.66069702E-01 0.22055596E+03</pdfrwt>
<totfact> 0.33840859E+02</totfact>
</mgrwt>
</event>
<event>
 6      1 +2.5168241e+02 2.06265700e+02 7.54677100e-03 1.17132900e-01
       21 -1    0    0  505  502 +0.0000000000e+00 +0.0000000000e+00 +2.9579968751e+02 2.9579968751e+02 0.0000000000e+00 0.0000e+00 1.0000e+00
       21 -1    0    0  504  503 -0.0000000000e+00 -0.0000000000e+00 -5.2223930633e+02 5.2223930633e+02 0.0000000000e+00 0.0000e+00 1.0000e+00
        6  1    1    2  501    0 -1.3901831285e+02 +4.1249010000e+00 +3.2435548228e+01 2.2433049482e+02 1.7300000000e+02 0.0000e+00 -1.0000e+00
       -6  1    1    2    0  502 +9.4410125736e+01 +6.5974249825e+00 +8.7079534791e+01 2.1556586751e+02 1.7300000000e+02 0.0000e+00 1.0000e+00
       21  1    1    2  504  501 +1.9353543260e+01 -1.5722458330e+01 -3.5101972072e+02 3.5190424787e+02 0.0000000000e+00 0.0000e+00 1.0000e+00
       21  1    1    2  505  503 +2.5254643855e+01 +5.0001323479e+00 +5.0650188831e+00 2.6238383640e+01 0.0000000000e+00 0.0000e+00 -1.0000e+00
<mgrwt>
<rscale>  4 0.20626570E+03</rscale>
<asrwt>0</asrwt>
<pdfrwt beam="1">  1       21 0.45507644E-01 0.20626570E+03</pdfrwt>
<pdfrwt beam="2">  1       21 0.80344508E-01 0.20626570E+03</pdfrwt>
<totfact> 0.62432786E+03</totfact>
</mgrwt>
</event>
<event>
 6      1 +2.5168241e+02 1.85068500e+02 7.54677100e-03 1.15942100e-01
       21 -1    0    0  504  502 +0.0000000000e+00 +0.0000000000e+00 +1.3472494580e+03 1.3472494580e+03 0.0000000000e+00 0.0000e+00 -1.0000e+00
       21 -1    0    0  501  503 -0.0000000000e+00 -0.0000000000e+00 -1.7453667114e+03 1.7453667114e+03 0.0000000000e+00 0.0000e+00 -1.0000e+00
        6  1    1    2  501    0 -6.4345136552e+01 +4.6241473270e+01 +1.1217002501e+03 1.1377253718e+03 1.7300000000e+02 0.0000e+00 -1.0000e+00
       -6  1    1    2    0  502 +1.7277623429e+01 +3.0410459937e+01 +1.5286960105e+02 2.3349823826e+02 1.7300000000e+02 0.0000e+00 1.0000e+00
       21  1    1    2  504  505 +1.3144251049e+02 -1.7146114449e+01 -1.7197270983e+02 2.1713068813e+02 0.0000000000e+00 0.0000e+00 -1.0000e+00
       21  1    1    2  505  503 -8.4374997363e+01 -5.9505818758e+01 -1.5007143948e+03 1.5042618713e+03 0.0000000000e+00 0.0000e+00 -1.0000e+00
<mgrwt>
<rscale>  4 0.18506854E+03</rscale>
<asrwt>0</asrwt>
<pdfrwt beam="1">  1       21 0.20726915E+00 0.18506854E+03</pdfrwt>
<pdfrwt beam="2">  1       21 0.26851795E+00 0.18506854E+03</pdfrwt>
<totfact> 0.63625555E+00</totfact>
</mgrwt>
</event>
<event>
 6      1 +2.5168241e+02 1.77663800e+02 7.54677100e-03 1.17132900e-01
       21 -1    0    0  503  502 +0.0000000000e+00 +0.0000000000e+00 +9.9503940080e+01 9.9503940080e+01 0.0000000000e+00 0.0000e+00 1.0000e+00
       21 -1    0    0  504  503 -0.0000000000e+00 -0.0000000000e+00 -5.1079855168e+02 5.1079855168e+02 0.0000000000e+00 0.0000e+00 1.0000e+00
        6  1    1    2  501    0 -4.3783310707e+01 +2.5579371798e+01 -2.4718809068e+02 3.0594482302e+02 1.7300000000e+02 0.0000e+00 1.0000e+00
       -6  1    1    2    0  505 +3.6418385795e+01 +3.3520004413e+01 -1.0626400163e+02 2.0897590187e+02 1.7300000000e+02 0.0000e+00 1.0000e+00
       21  1    1    2  504  501 +2.5563776877e+00 -2.0567188229e+01 -5.2173233936e+01 5.6139029541e+01 0.0000000000e+00 0.0000e+00 1.0000e+00
       21  1    1    2  505  502 +4.8085472244e+00 -3.8532187982e+01 -5.6692853585e+00 3.9242737335e+01 0.0000000000e+00 0.0000e+00 1.0000e+00
<mgrwt>
<rscale>  4 0.17766385E+03</rscale>
<asrwt>0</asrwt>
<pdfrwt beam="1">  1       21 0.15308299E-01 0.17766385E+03</pdfrwt>
<pdfrwt beam="2">  1       21 0.78584392E-01 0.17766385E+03</pdfrwt>
<totfact> 0.54512083E+04</totfact>
</mgrwt>
</event>
<event>
 6      1 +2.5168241e+02 1.96460900e+02 7.54677100e-03 1.17132900e-01
       21 -1    0    0  503  502 +0.0000000000e+00 +0.0000000000e+00 +8.2354851130e+01 8.2354851130e+01 0.0000000000e+00 0.0000e+00 -1.0000e+00
       21 -1    0    0  504  503 -0.0000000000e+00 -0.0000000000e+00 -9.1914352960e+02 9.1914352960e+02 0.0000000000e+00 0.0000e+00 -1.0000e+00
        6  1    1    2  501    0 +5.3218167577e+01 -6.4897047302e+01 -2.6502479918e+02 3.2743082367e+02 1.7300000000e+02 0.0000e+00 1.0000e+00
       -6  1    1    2    0  505 -3.7066488882e+01 +1.0731207160e+02 -5.0866087902e+02 5.4913995953e+02 1.7300000000e+02 0.0000e+00 -1.0000e+00
       21  1    1    2  504  501 +9.4062421505e+00 -2.9001859309e+01 -8.3954896955e+01 8.9319706434e+01 0.0000000000e+00 0.0000e+00 -1.0000e+00
       21  1    1    2  505  502 -2.5557920846e+01 -1.3413164993e+01 +2.0851896681e+01 3.5607891096e+01 0.0000000000e+00 0.0000e+00 1.0000e+00
<mgrwt>
<rscale>  4 0.19646088E+03</rscale>
<asrwt>0</asrwt>
<pdfrwt beam="1">  1       21 0.12669977E-01 0.19646088E+03</pdfrwt>
<pdfrwt beam="2">  1       21 0.14140669E+00 0.19646088E+03</pdfrwt>
<totfact> 0.18515698E+04</totfact>
</mgrwt>
</event>
<event>
 6      1 +2.5168241e+02 2.25687600e+02 7.54677100e-03 1.04003000e-01
       21 -1    0    0  504  502 +0.0000000000e+00 +0.0000000000e+00 +9.1963707278e+02 9.1963707278e+02 0.0000000000e+00 0.0000e+00 -1.0000e+00
       21 -1    0    0  505  503 -0.0000000000e+00 -0.0000000000e+00 -8.8966385500e+01 8.8966385500e+01 0.0000000000e+00 0.0000e+00 -1.0000e+00
        6  1    1    2  501    0 -1.4527270785e+02 +2.8697796831e+01 +2.4524520206e+02 3.3466689756e+02 1.7300000000e+02 0.0000e+00 -1.0000e+00
       -6  1    1    2    0  503 +1.5714231881e+02 -1.2308235449e+01 +4.4015357593e+02 4.9850714280e+02 1.7300000000e+02 0.0000e+00 -1.0000e+00
       21  1    1    2  504  501 +2.5565576740e+01 -4.8186520781e+00 +1.1120216287e+00 2.6039483751e+01 0.0000000000e+00 0.0000e+00 1.0000e+00
       21  1    1    2  505  502 -3.7435187692e+01 -1.1570909304e+01 +1.4415988766e+02 1.4938993417e+02 0.0000000000e+00 0.0000e+00 1.0000e+00
<mgrwt>
<rscale>  4 0.22568759E+03</rscale>
<asrwt>0</asrwt>
<pdfrwt beam="1">  1       21 0.14148262E+00 0.22568759E+03</pdfrwt>
<pdfrwt beam="2">  1       21 0.13687137E-01 0.22568759E+03</pdfrwt>
<totfact> 0.15780521E+04</totfact>
</mgrwt>
</event>
<event>
 6      1 +2.5168241e+02 2.95657700e+02 7.54677100e-03 1.03924000e-01
       21 -1    0    0  504  502 +0.0000000000e+00 +0.0000000000e+00 +1.4134873377e+03 1.4134873377e+03 0.0000000000e+00 0.0000e+00 -1.0000e+00
       21 -1    0    0  501  503 -0.0000000000e+00 -0.0000000000e+00 -6.1462821589e+02 6.1462821589e+02 0.0000000000e+00 0.0000e+00 -1.0000e+00
        6  1    1    2  501    0 +1.1767057956e+02 -1.2215192862e+02 +9.8582099761e+02 1.0151549134e+03 1.7300000000e+02 0.0000e+00 -1.0000e+00
       -6  1    1    2    0  505 -1.7866094014e+02 +1.6379159889e+02 -5.5890359748e+02 6.3328481008e+02 1.7300000000e+02 0.0000e+00 -1.0000e+00
       21  1    1    2  504  503 +1.7674986207e+01 -2.2550545833e+01 +1.5563910219e+02 1.5825442295e+02 0.0000000000e+00 0.0000e+00 -1.0000e+00
       21  1    1    2  505  502 +4.3315374369e+01 -1.9089124440e+01 +2.1630261947e+02 2.2142140709e+02 0.0000000000e+00 0.0000e+00 -1.0000e+00
<mgrwt>
<rscale>  4 0.29565770E+03</rscale>
<asrwt>0</asrwt>
<pdfrwt beam="1">  1       21 0.21745959E+00 0.29565770E+03</pdfrwt>
<pdfrwt beam="2">  1       21 0.94558188E-01 0.29565770E+03</pdfrwt>
<totfact> 0.86398842E+01</totfact>
</mgrwt>
</event>
<event>
 6      1 +2.5168241e+02 1.82152700e+02 7.54677100e-03 1.17132900e-01
       21 -1    0    0  503  502 +0.0000000000e+00 +0.0000000000e+00 +5.1642288065e+02 5.1642288065e+02 0.0000000000e+00 0.0000e+00 -1.0000e+00
       21 -1    0    0  504  503 -0.0000000000e+00 -0.0000000000e+00 -5.8021138413e+02 5.8021138413e+02 0.0000000000e+00 0.0000e+00 1.0000e+00
        6  1    1    2  501    0 +3.0104453692e+01 +5.1682377237e+00 -1.3621685893e+01 1.7620311898e+02 1.7300000000e+02 0.0000e+00 1.0000e+00
       -6  1    1    2    0  505 -6.2282253247e+01 -4.9518906818e+01 -9.2671945119e+01 2.1177415001e+02 1.7300000000e+02 0.0000e+00 1.0000e+00
       21  1    1    2  504  501 -1.7414000233e+01 +3.8021779826e+01 -3.3008707566e+02 3.3272568380e+02 0.0000000000e+00 0.0000e+00 1.0000e+00
       21  1    1    2  505  502 +4.9591799788e+01 +6.3288892681e+00 +3.7259220319e+02 3.7593131197e+02 0.0000000000e+00 0.0000e+00 -1.0000e+00
<mgrwt>
<rscale>  4 0.18215266E+03</rscale>
<asrwt>0</asrwt>
<pdfrwt beam="1">  1       21 0.79449674E-01 0.18215266E+03</pdfrwt>
<pdfrwt beam="2">  1       21 0.89263290E-01 0.18215266E+03</pdfrwt>
<totfact> 0.15110702E+03</totfact>
</mgrwt>
</event>
<event>
 6      1 +2.5168241e+02 1.92477600e+02 7.54677100e-03 1.06249800e-01
       21 -1    0    0  504  502 +0.0000000000e+00 +0.0000000000e+00 +3.1924946001e+02 3.1924946001e+02 0.0000000000e+00 0.0000e+00 -1.0000e+00
       21 -1    0    0  502  503 -0.0000000000e+00 -0.0000000000e+00 -4.5074650688e+02 4.5074650688e+02 0.0000000000e+00 0.0000e+00 -1.0000e+00
        6  1    1    2  501    0 +4.0230609030e+01 -6.6375413486e+01 -3.4947777139e+02 3.9760270386e+02 1.7300000000e+02 0.0000e+00 -1.0000e+00
       -6  1    1    2    0  503 -8.6578881111e+01 +1.1727771855e+02 +1.5791107463e+02 2.7588924121e+02 1.7300000000e+02 0.0000e+00 -1.0000e+00
       21  1    1    2  504  505 +1.2502383116e+01 -3.2524497604e+01 +1.7145509487e+01 3.8834533904e+01 0.0000000000e+00 0.0000e+00 -1.0000e+00
       21  1    1    2  505  501 +3.3845888965e+01 -1.8377807464e+01 +4.2924140410e+01 5.7669487920e+01 0.0000000000e+00 0.0000e+00 -1.0000e+00
<mgrwt>
<rscale>  4 0.19247764E+03</rscale>
<asrwt>0</asrwt>
<pdfrwt beam="1">  1       21 0.49115302E-01 0.19247764E+03</pdfrwt>
<pdfrwt beam="2">  1       21 0.69345616E-01 0.19247764E+03</pdfrwt>
<totfact> 0.74823953E+03</totfact>
</mgrwt>
</event>
<event>
 6      1 +2.5168241e+02 2.10745900e+02 7.54677100e-03 1.16820100e-01
       21 -1    0    0  501  502 +0.0000000000e+00 +0.0000000000e+00 +9.6632148792e+02 9.6632148792e+02 0.0000000000e+00 0.0000e+00 1.0000e+00
       21 -1    0    0  504  503 -0.0000000000e+00 -0.0000000000e+00 -1.4979999409e+02 1.4979999409e+02 0.0000000000e+00 0.0000e+00 1.0000e+00
        6  1    1    2  501    0 -6.1931100757e+01 +5.6159847304e+01 +4.2721900024e+02 4.6843832450e+02 1.7300000000e+02 0.0000e+00 1.0000e+00
       -6  1    1    2    0  503 +1.8373433350e+02 -5.8761646776e+01 +4.2439011683e+02 4.9723958783e+02 1.7300000000e+02 0.0000e+00 -1.0000e+00
       21  1    1    2  504  505 -9.5723200039e+01 +1.8428719287e+01 -5.6963262301e+01 1.1290421592e+02 0.0000000000e+00 0.0000e+00 1.0000e+00
       21  1    1    2  505  502 -2.6080032702e+01 -1.5826919815e+01 +2.1875639054e+01 3.7539353758e+01 0.0000000000e+00 0.0000e+00 -1.0000e+00
<mgrwt>
<rscale>  4 0.21074586E+03</rscale>
<asrwt>0</asrwt>
<pdfrwt beam="1">  1       21 0.14866484E+00 0.21074586E+03</pdfrwt>
<pdfrwt beam="2">  1       21 0.23046154E-01 0.21074586E+03</pdfrwt>
<totfact> 0.53312727E+03</totfact>
</mgrwt>
</event>
<event>
 6      1 +2.5168241e+02 1.73093800e+02 7.54677100e-03 1.12068800e-01
       21 -1    0    0  504  502 +0.0000000000e+00 +0.0000000000e+00 +6.3088910547e+02 6.3088910547e+02 0.0000000000e+00 0.0000e+00 1.0000e+00
       21 -1    0    0  502  503 -0.0000000000e+00 -0.0000000000e+00 -3.2253821525e+02 3.2253821525e+02 0.0000000000e+00 0.0000e+00 1.0000e+00
        6  1    1    2  501    0 -3.3744908140e+01 -8.7346806931e+01 +1.7550854107e+02 2.6362934491e+02 1.7300000000e+02 0.0000e+00 -1.0000e+00
       -6  1    1    2    0  505 -2.4236029942e+01 -4.1399131492e+01 +3.6822890047e+02 4.0966180732e+02 1.7300000000e+02 0.0000e+00 1.0000e+00
       21  1    1    2  504  501 +3.1055006772e+01 +1.1627252098e+02 -2.0463925715e+02 2.3740458746e+02 0.0000000000e+00 0.0000e+00 1.0000e+00
       21  1    1    2  505  503 +2.6925931310e+01 +1.2473417447e+01 -3.0747294161e+01 4.2731581038e+01 0.0000000000e+00 0.0000e+00 1.0000e+00
<mgrwt>
<rscale>  4 0.17309379E+03</rscale>
<asrwt>0</asrwt>
<pdfrwt beam="1">  1       21 0.97059862E-01 0.17309379E+03</pdfrwt>
<pdfrwt beam="2">  1       21 0.49621264E-01 0.17309379E+03</pdfrwt>
<totfact> 0.34685874E+03</totfact>
</mgrwt>
</event>
<event>
 6      1 +2.5168241e+02 2.11094500e+02 7.54677100e-03 1.17132900e-01
       21 -1    0    0  503  502 +0.0000000000e+00 +0.0000000000e+00 +3.3767950100e+03 3.3767950100e+03 0.0000000000e+00 0.0000e+00 -1.0000e+00
       21 -1    0    0  504  503 -0.0000000000e+00 -0.0000000000e+00 -5.0103834382e+01 5.0103834382e+01 0.0000000000e+00 0.0000e+00 -1.0000e+00
        6  1    1    2  501    0 -1.3936385397e+00 +1.3058856140e+02 +6.5418055086e+02 6.8915637393e+02 1.7300000000e+02 0.0000e+00 -1.0000e+00
       -6  1    1    2    0  505 +3.8354591101e+01 -1.1125509315e+02 +5.9484217862e+02 6.3056719537e+02 1.7300000000e+02 0.0000e+00 -1.0000e+00
       21  1    1    2  504  501 -4.3957090732e+01 +1.2479777586e+01 +2.1068719117e+01 5.0317607251e+01 0.0000000000e+00 0.0000e+00 -1.0000e+00
       21  1    1    2  505  502 +6.9961381713e+00 -3.1813245831e+01 +2.0565997271e+03 2.0568576679e+03 0.0000000000e+00 0.0000e+00 -1.0000e+00
<mgrwt>
<rscale>  4 0.21109447E+03</rscale>
<asrwt>0</asrwt>
<pdfrwt beam="1">  1       21 0.51950675E+00 0.21109447E+03</pdfrwt>
<pdfrwt beam="2">  1       21 0.77082848E-02 0.21109447E+03</pdfrwt>
<totfact> 0.17050659E+02</totfact>
</mgrwt>
</event>
<event>
 6      1 +2.5168241e+02 2.58387700e+02 7.54677100e-03 1.11896800e-01
       21 -1    0    0  501  502 +0.0000000000e+00 +0.0000000000e+00 +6.0119897717e+02 6.0119897717e+02 0.0000000000e+00 0.0000e+00 -1.0000e+00
       21 -1    0    0  504  503 -0.0000000000e+00 -0.0000000000e+00 -2.7111037028e+02 2.7111037028e+02 0.0000000000e+00 0.0000e+00 -1.0000e+00
        6  1    1    2  501    0 -1.8765960458e+02 +1.6581765723e+01 +3.7381195819e+02 4.5294090369e+02 1.7300000000e+02 0.0000e+00 -1.0000e+00
       -6  1    1    2    0  503 -1.8972295506e+01 -1.0070134330e+01 +4.1917617328e+01 1.7929707818e+02 1.7300000000e+02 0.0000e+00 1.0000e+00
       21  1    1    2  504  505 +5.1247072393e+01 -1.4359668964e+01 +1.4357441383e+01 5.5123485418e+01 0.0000000000e+00 0.0000e+00 -1.0000e+00
       21  1    1    2  505  502 +1.5538482769e+02 +7.8480375719e+00 -9.9998410019e+01 1.8494788016e+02 0.0000000000e+00 0.0000e+00 -1.0000e+00
<mgrwt>
<rscale>  4 0.23417788E+03</rscale>
<asrwt>0</asrwt>
<pdfrwt beam="1">  1       21 0.92492150E-01 0.25838772E+03</pdfrwt>
<pdfrwt beam="2">  1       21 0.41709288E-01 0.25838772E+03</pdfrwt>
<totfact> 0.52140250E+03</totfact>
</mgrwt>
</event>
<event>
 6      1 +2.5168241e+02 2.58751300e+02 7.54677100e-03 1.11910500e-01
       21 -1    0    0  501  502 +0.0000000000e+00 +0.0000000000e+00 +9.8412761248e+02 9.8412761248e+02 0.0000000000e+00 0.0000e+00 -1.0000e+00
       21 -1    0    0  505  503 -0.0000000000e+00 -0.0000000000e+00 -3.6258469319e+02 3.6258469319e+02 0.0000000000e+00 0.0000e+00 1.0000e+00
        6  1    1    2  501    0 -2.5170207415e+02 +8.5621807919e+01 +3.4973749860e+02 4.7215500214e+02 1.7300000000e+02 0.0000e+00 1.0000e+00
       -6  1    1    2    0  504 +1.4687870290e+02 -6.9037662254e+01 +5.2752742375e+02 5.7840620241e+02 1.7300000000e+02 0.0000e+00 -1.0000e+00
       21  1    1    2  504  503 -1.2606117967e+01 -2.4189583836e+01 -8.1228056961e+01 8.5685748022e+01 0.0000000000e+00 0.0000e+00 -1.0000e+00
       21  1    1    2  505  502 +1.1742948921e+02 +7.6054381713e+00 -1.7449394610e+02 2.1046535309e+02 0.0000000000e+00 0.0000e+00 1.0000e+00
<mgrwt>
<rscale>  4 0.25875128E+03</rscale>
<asrwt>0</asrwt>
<pdfrwt beam="1">  1       21 0.15140425E+00 0.25875128E+03</pdfrwt>
<pdfrwt beam="2">  1       21 0.55782261E-01 0.25875128E+03</pdfrwt>
<totfact> 0.82988275E+02</totfact>
</mgrwt>
</event>
<event>
 6      1 +2.5168241e+02 1.78514600e+02 7.54677100e-03 1.15942100e-01
       21 -1    0    0  505  502 +0.0000000000e+00 +0.0000000000e+00 +2.0643466988e+02 2.0643466988e+02 0.0000000000e+00 0.0000e+00 1.0000e+00
       21 -1    0    0  501  503 -0.0000000000e+00 -0.0000000000e+00 -4.4828967027e+02 4.4828967027e+02 0.0000000000e+00 0.0000e+00 1.0000e+00
        6  1    1    2  501    0 +1.4760864854e+01 -4.7466363943e+01 +6.1595310323e+01 1.9024700022e+02 1.7300000000e+02 0.0000e+00 1.0000e+00
       -6  1    1    2    0  504 +4.2404841172e+01 +3.6861641793e+01 -4.0123345210e+01 1.8626817769e+02 1.7300000000e+02 0.0000e+00 -1.0000e+00
       21  1    1    2  504  502 -2.0962153256e+01 +1.3585483775e+01 -1.9495927037e+01 3.1687038510e+01 0.0000000000e+00 0.0000e+00 1.0000e+00
       21  1    1    2  505  503 -3.6203552770e+01 -2.9807616249e+00 -2.4383103847e+02 2.4652212374e+02 0.0000000000e+00 0.0000e+00 1.0000e+00
<mgrwt>
<rscale>  4 0.17851462E+03</rscale>
<asrwt>0</asrwt>
<pdfrwt beam="1">  1       21 0.31759180E-01 0.17851462E+03</pdfrwt>
<pdfrwt beam="2">  1       21 0.68967641E-01 0.17851462E+03</pdfrwt>
<totfact> 0.18409496E+04</totfact>
</mgrwt>
</event>
<event>
 6      1 +2.5168241e+02 4.76469100e+02 7.54677100e-03 1.11910500e-01
       21 -1    0    0  501  502 +0.0000000000e+00 +0.0000000000e+00 +8.8715189446e+02 8.8715189446e+02 0.0000000000e+00 0.0000e+00 1.0000e+00
       21 -1    0    0  504  503 -0.0000000000e+00 -0.0000000000e+00 -3.1039694126e+02 3.1039694126e+02 0.0000000000e+00 0.0000e+00 1.0000e+00
        6  1    1    2  501    0 +1.1435608953e+01 +1.4271288270e+02 +3.1827031818e+02 3.8951602724e+02 1.7300000000e+02 0.0000e+00 1.0000e+00
       -6  1    1    2    0  503 -1.4901305573e+02 +1.1415270003e+02 +3.9737186008e+02 4.7230194250e+02 1.7300000000e+02 0.0000e+00 1.0000e+00
       21  1    1    2  504  505 +1.6675460192e+00 -2.8035101454e+01 +1.1135977427e+01 3.0211878732e+01 0.0000000000e+00 0.0000e+00 1.0000e+00
       21  1    1    2  505  502 +1.3590990076e+02 -2.2883048128e+02 -1.5002320249e+02 3.0551898726e+02 0.0000000000e+00 0.0000e+00 1.0000e+00
<mgrwt>
<rscale>  4 0.47646905E+03</rscale>
<asrwt>0</asrwt>
<pdfrwt beam="1">  1       21 0.13648491E+00 0.47646905E+03</pdfrwt>
<pdfrwt beam="2">  1       21 0.47753376E-01 0.47646905E+03</pdfrwt>
<totfact> 0.13502923E+03</totfact>
</mgrwt>
</event>
<event>
 6      1 +2.5168241e+02 2.08125500e+02 7.54677100e-03 1.09842800e-01
       21 -1    0    0  504  502 +0.0000000000e+00 +0.0000000000e+00 +2.0584286324e+02 2.0584286324e+02 0.0000000000e+00 0.0000e+00 1.0000e+00
       21 -1    0    0  505  503 -0.0000000000e+00 -0.0000000000e+00 -6.8303427097e+02 6.8303427097e+02 0.0000000000e+00 0.0000e+00 1.0000e+00
        6  1    1    2  501    0 -1.0154977233e+02 +4.9134185807e+00 -3.0742655806e+02 3.6711930832e+02 1.7300000000e+02 0.0000e+00 1.0000e+00
       -6  1    1    2    0  503 +1.2546579006e+02 +8.4938073635e+01 -2.6068545407e+02 3.4762342670e+02 1.7300000000e+02 0.0000e+00 1.0000e+00
       21  1    1    2  504  501 +1.3156139574e+01 -6.3073647719e+01 -8.2210829097e+00 6.4953485274e+01 0.0000000000e+00 0.0000e+00 1.0000e+00
       21  1    1    2  505  502 -3.7072157303e+01 -2.6777844497e+01 +9.9141687298e+01 1.0918091392e+02 0.0000000000e+00 0.0000e+00 1.0000e+00
<mgrwt>
<rscale>  4 0.20812545E+03</rscale>
<asrwt>0</asrwt>
<pdfrwt beam="1">  1       21 0.31668133E-01 0.20812545E+03</pdfrwt>
<pdfrwt beam="2">  1       21 0.10508220E+00 0.20812545E+03</pdfrwt>
<totfact> 0.69104535E+03</totfact>
</mgrwt>
</event>
<event>
 6      1 +2.5168241e+02 2.00702100e+02 7.54677100e-03 1.11910500e-01
       21 -1    0    0  501  502 +0.0000000000e+00 +0.0000000000e+00 +3.4257618732e+02 3.4257618732e+02 0.0000000000e+00 0.0000e+00 1.0000e+00
       21 -1    0    0  504  503 -0.0000000000e+00 -0.0000000000e+00 -1.6737246923e+02 1.6737246923e+02 0.0000000000e+00 0.0000e+00 1.0000e+00
        6  1    1    2  501    0 +1.0919554958e+02 -4.6196652608e+01 +1.4589172640e+02 2.5548227843e+02 1.7300000000e+02 0.0000e+00 1.0000e+00
       -6  1    1    2    0  503 -5.7048581500e+01 +5.9043830492e+01 +3.8205275354e+01 1.9526740034e+02 1.7300000000e+02 0.0000e+00 1.0000e+00
       21  1    1    2  504  505 -2.3449087367e+01 -3.2464716060e+00 -1.5406656177e+01 2.8244722176e+01 0.0000000000e+00 0.0000e+00 1.0000e+00
       21  1    1    2  505  502 -2.8697880710e+01 -9.6007062786e+00 +6.5133725160e+00 3.0954255601e+01 0.0000000000e+00 0.0000e+00 1.0000e+00
<mgrwt>
<rscale>  4 0.20070213E+03</rscale>
<asrwt>0</asrwt>
<pdfrwt beam="1">  1       21 0.52704029E-01 0.20070213E+03</pdfrwt>
<pdfrwt beam="2">  1       21 0.25749611E-01 0.20070213E+03</pdfrwt>
<totfact> 0.48657830E+04</totfact>
</mgrwt>
</event>
<event>
 6      1 +2.5168241e+02 2.81504100e+02 7.54677100e-03 1.12989000e-01
       21 -1    0    0  505  502 +0.0000000000e+00 +0.0000000000e+00 +5.6964013720e+02 5.6964013720e+02 0.0000000000e+00 0.0000e+00 -1.0000e+00
       21 -1    0    0  504  503 -0.0000000000e+00 -0.0000000000e+00 -3.5022653935e+02 3.5022653935e+02 0.0000000000e+00 0.0000e+00 1.0000e+00
        6  1    1    2  501    0 +2.3656956454e+02 -9.7019195058e+01 +3.2711734619e+02 4.4979177545e+02 1.7300000000e+02 0.0000e+00 1.0000e+00
       -6  1    1    2    0  502 -1.9339101355e+01 +7.4264173478e+01 +5.1795204307e+01 1.9621649139e+02 1.7300000000e+02 0.0000e+00 -1.0000e+00
       21  1    1    2  504  501 -1.5919624913e+02 +1.5481556931e+01 -9.1899729191e+01 1.8446865470e+02 0.0000000000e+00 0.0000e+00 1.0000e+00
       21  1    1    2  505  503 -5.8034214059e+01 +7.2734646495e+00 -6.7599223461e+01 8.9389755017e+01 0.0000000000e+00 0.0000e+00 -1.0000e+00
<mgrwt>
<rscale>  4 0.25490390E+03</rscale>
<asrwt>0</asrwt>
<pdfrwt beam="1">  1       21 0.87636944E-01 0.28150411E+03</pdfrwt>
<pdfrwt beam="2">  1       21 0.53881006E-01 0.28150411E+03</pdfrwt>
<totfact> 0.34190971E+03</totfact>
</mgrwt>
</event>
<event>
 6      1 +2.5168241e+02 2.01339900e+02 7.54677100e-03 1.09842800e-01
       21 -1    0    0  505  502 +0.0000000000e+00 +0.0000000000e+00 +1.1281622539e+02 1.1281622539e+02 0.0000000000e+00 0.0000e+00 1.0000e+00
       21 -1    0    0  501  503 -0.0000000000e+00 -0.0000000000e+00 -1.8193604200e+03 1.8193604200e+03 0.0000000000e+00 0.0000e+00 1.0000e+00
        6  1    1    2  501    0 -1.1551472086e+02 +1.2834544053e-02 -1.3592452835e+03 1.3750710497e+03 1.7300000000e+02 0.0000e+00 1.0000e+00
       -6  1    1    2    0  504 +4.7346805912e+01 +6.9914398230e+01 -2.5535029878e+02 3.1978511253e+02 1.7300000000e+02 0.0000e+00 -1.0000e+00
       21  1    1    2  504  502 +1.6098107869e+01 -8.1616959422e+01 -1.4172975930e+02 1.6434050570e+02 0.0000000000e+00 0.0000e+00 1.0000e+00
       21  1    1    2  505  503 +5.2069807080e+01 +1.1689726648e+01 +4.9781146979e+01 7.2979977480e+01 0.0000000000e+00 0.0000e+00 1.0000e+00
<mgrwt>
<rscale>  4 0.20133986E+03</rscale>
<asrwt>0</asrwt>
<pdfrwt beam="1">  1       21 0.17356342E-01 0.20133986E+03</pdfrwt>
<pdfrwt beam="2">  1       21 0.27990161E+00 0.20133986E+03</pdfrwt>
<totfact> 0.13235991E+03</totfact>
</mgrwt>
</event>
<event>
 6      1 +2.5168241e+02 1.90609900e+02 7.54677100e-03 1.03924000e-01
       21 -1    0    0  504  502 +0.0000000000e+00 +0.0000000000e+00 +9.1644985349e+02 9.1644985349e+02 0.0000000000e+00 0.0000e+00 1.0000e+00
       21 -1    0    0  501  503 -0.0000000000e+00 -0.0000000000e+00 -8.6946784521e+01 8.6946784521e+01 0.0000000000e+00 0.0000e+00 1.0000e+00
        6  1    1    2  501    0 -2.1099965856e+01 -1.3018453730e+02 +1.9114860768e+02 2.8958593289e+02 1.7300000000e+02 0.0000e+00 1.0000e+00
       -6  1    1    2    0  505 -2.0183599754e+01 +2.3994755639e+01 +2.3947893717e+02 2.9708969579e+02 1.7300000000e+02 0.0000e+00 1.0000e+00
       21  1    1    2  504  503 +4.0851794792e+01 +5.1330989703e+01 +2.0585177562e+02 2.1605252409e+02 0.0000000000e+00 0.0000e+00 1.0000e+00
       21  1    1    2  505  502 +4.3177081832e-01 +5.4858791958e+01 +1.9302374850e+02 2.0066848524e+02 0.0000000000e+00 0.0000e+00 1.0000e+00
<mgrwt>
<rscale>  4 0.19060988E+03</rscale>
<asrwt>0</asrwt>
<pdfrwt beam="1">  1       21 0.14099228E+00 0.19060988E+03</pdfrwt>
<pdfrwt beam="2">  1       21 0.13376429E-01 0.19060988E+03</pdfrwt>
<totfact> 0.16987674E+04</totfact>
</mgrwt>
</event>
<event>
 6      1 +2.5168241e+02 1.85292600e+02 7.54677100e-03 1.17132900e-01
       21 -1    0    0  503  502 +0.0000000000e+00 +0.0000000000e+00 +4.5468754464e+01 4.5468754464e+01 0.0000000000e+00 0.0000e+00 -1.0000e+00
       21 -1    0    0  504  503 -0.0000000000e+00 -0.0000000000e+00 -1.4925031923e+03 1.4925031923e+03 0.0000000000e+00 0.0000e+00 -1.0000e+00
        6  1    1    2  501    0 +4.3852063524e+01 -1.9063374357e+01 -3.2522629684e+02 3.7146676819e+02 1.7300000000e+02 0.0000e+00 -1.0000e+00
       -6  1    1    2    0  505 -7.1758823887e+01 +5.1385231575e+01 -1.0326165120e+03 1.0507214815e+03 1.7300000000e+02 0.0000e+00 -1.0000e+00
       21  1    1    2  504  501 +2.3666700435e+01 -4.4364012701e+00 -8.3639404886e+01 8.7036454520e+01 0.0000000000e+00 0.0000e+00 1.0000e+00
       21  1    1    2  505  502 +4.2400599271e+00 -2.7885455948e+01 -5.5522241094e+00 2.8747242549e+01 0.0000000000e+00 0.0000e+00 -1.0000e+00
<mgrwt>
<rscale>  4 0.18529256E+03</rscale>
<asrwt>0</asrwt>
<pdfrwt beam="1">  1       21 0.69951939E-02 0.18529256E+03</pdfrwt>
<pdfrwt beam="2">  1       21 0.22961585E+00 0.18529256E+03</pdfrwt>
<totfact> 0.13402309E+04</totfact>
</mgrwt>
</event>
<event>
 6      1 +2.5168241e+02 2.28744800e+02 7.54677100e-03 9.87464100e-02
       21 -1    0    0  503  502 +0.0000000000e+00 +0.0000000000e+00 +5.3173278579e+02 5.3173278579e+02 0.0000000000e+00 0.0000e+00 -1.0000e+00
       21 -1    0    0  505  503 -0.0000000000e+00 -0.0000000000e+00 -3.8975435428e+02 3.8975435428e+02 0.0000000000e+00 0.0000e+00 1.0000e+00
        6  1    1    2  501    0 -1.4557132945e+02 +2.4848031733e+01 +1.4358557981e+02 2.6898746322e+02 1.7300000000e+02 0.0000e+00 -1.0000e+00
       -6  1    1    2    0  504 +1.4530530238e+02 -4.2376454246e+01 +2.7409490230e+02 3.5772393020e+02 1.7300000000e+02 0.0000e+00 -1.0000e+00
       21  1    1    2  504  502 +2.7434541437e+01 -1.2131880302e+01 -2.0287639487e+01 3.6213601029e+01 0.0000000000e+00 0.0000e+00 1.0000e+00
       21  1    1    2  505  501 -2.7168514372e+01 +2.9660302815e+01 -2.5541441112e+02 2.5856214561e+02 0.0000000000e+00 0.0000e+00 1.0000e+00
<mgrwt>
<rscale>  4 0.22874475E+03</rscale>
<asrwt>0</asrwt>
<pdfrwt beam="1">  1       21 0.81805044E-01 0.22874475E+03</pdfrwt>
<pdfrwt beam="2">  1       21 0.59962208E-01 0.22874475E+03</pdfrwt>
<totfact> 0.32972730E+03</totfact>
</mgrwt>
</event>
<event>
 6      1 +2.5168241e+02 3.02801300e+02 7.54677100e-03 1.11910500e-01
       21 -1    0    0  501  502 +0.0000000000e+00 +0.0000000000e+00 +6.6637925468e+02 6.6637925468e+02 0.0000000000e+00 0.0000e+00 1.0000e+00
       21 -1    0    0  504  503 -0.0000000000e+00 -0.0000000000e+00 -1.6165340675e+03 1.6165340675e+03 0.0000000000e+00 0.0000e+00 1.0000e+00
        6  1    1    2  501    0 +2.3557941696e+00 -9.4180654999e+01 +5.6015378318e+02 5.9378178345e+02 1.7300000000e+02 0.0000e+00 1.0000e+00
       -6  1    1    2    0  503 -1.4796996833e+02 +5.2712403110e+01 -8.5253031400e+02 8.8397434649e+02 1.7300000000e+02 0.0000e+00 1.0000e+00
       21  1    1    2  504  505 -1.3789144168e+02 +2.7299034296e+01 -3.9142941428e+02 4.1590416363e+02 0.0000000000e+00 0.0000e+00 1.0000e+00
       21  1    1    2  505  502 +2.8350561584e+02 +1.4169217592e+01 -2.6634886770e+02 3.8925302859e+02 0.0000000000e+00 0.0000e+00 1.0000e+00
<mgrwt>
<rscale>  4 0.27187638E+03</rscale>
<asrwt>0</asrwt>
<pdfrwt beam="1">  1       21 0.10251989E+00 0.30280127E+03</pdfrwt>
<pdfrwt beam="2">  1       21 0.24869755E+00 0.30280127E+03</pdfrwt>
<totfact> 0.45427089E+01</totfact>
</mgrwt>
</event>
<event>
 6      1 +2.5168241e+02 2.75329300e+02 7.54677100e-03 1.09842800e-01
       21 -1    0    0  505  502 +0.0000000000e+00 +0.0000000000e+00 +1.9851776489e+03 1.9851776489e+03 0.0000000000e+00 0.0000e+00 1.0000e+00
       21 -1    0    0  501  503 -0.0000000000e+00 -0.0000000000e+00 -1.6779804066e+02 1.6779804066e+02 0.0000000000e+00 0.0000e+00 -1.0000e+00
        6  1    1    2  501    0 -1.0472954637e+02 +5.4043860462e+01 +3.4669084926e+01 2.1217908046e+02 1.7300000000e+02 0.0000e+00 -1.0000e+00
       -6  1    1    2    0  504 +5.0601251444e+01 -1.7353344897e+02 +4.0659213154e+02 4.7741020725e+02 1.7300000000e+02 0.0000e+00 -1.0000e+00
       21  1    1    2  504  502 +1.7263880891e+02 -7.3335348412e+01 +2.3824069781e+02 3.0321751559e+02 0.0000000000e+00 0.0000e+00 -1.0000e+00
       21  1    1    2  505  503 -1.1851051398e+02 +1.9282493692e+02 +1.1378776939e+03 1.1601688862e+03 0.0000000000e+00 0.0000e+00 1.0000e+00
<mgrwt>
<rscale>  4 0.25013801E+03</rscale>
<asrwt>0</asrwt>
<pdfrwt beam="1">  1       21 0.30541193E+00 0.27532926E+03</pdfrwt>
<pdfrwt beam="2">  1       21 0.25815085E-01 0.27532926E+03</pdfrwt>
<totfact> 0.40901241E+02</totfact>
</mgrwt>
</event>
<event>
 6      1 +2.5168241e+02 1.95058200e+02 7.54677100e-03 1.17132900e-01
       21 -1    0    0  505  502 +0.0000000000e+00 +0.0000000000e+00 +2.2174803590e+02 2.2174803590e+02 0.0000000000e+00 0.0000e+00 1.0000e+00
       21 -1    0    0  504  503 -0.0000000000e+00 -0.0000000000e+00 -1.0085335838e+03 1.0085335838e+03 0.0000000000e+00 0.0000e+00 1.0000e+00
        6  1    1    2  501    0 +3.8395196881e+01 +1.0171847326e+02 -8.0126721687e+02 8.2690930082e+02 1.7300000000e+02 0.0000e+00 1.0000e+00
       -6  1    1    2    0  502 -5.4506146022e+01 -6.2253794935e+01 +1.4151186217e+02 2.3832973392e+02 1.7300000000e+02 0.0000e+00 1.0000e+00
       21  1    1    2  504  501 -1.5028411700e+01 -1.5267114424e+01 -1.2361677886e+02 1.2545933986e+02 0.0000000000e+00 0.0000e+00 1.0000e+00
       21  1    1    2  505  503 +3.1139360841e+01 -2.4197563900e+01 -3.4134143010e+00 3.9583245060e+01 0.0000000000e+00 0.0000e+00 1.0000e+00
<mgrwt>
<rscale>  4 0.19505821E+03</rscale>
<asrwt>0</asrwt>
<pdfrwt beam="1">  1       21 0.34115082E-01 0.19505821E+03</pdfrwt>
<pdfrwt beam="2">  1       21 0.15515902E+00 0.19505821E+03</pdfrwt>
<totfact> 0.22578039E+03</totfact>
</mgrwt>
</event>
<event>
 6      1 +2.5168241e+02 2.19846100e+02 7.54677100e-03 1.03924000e-01
       21 -1    0    0  504  502 +0.0000000000e+00 +0.0000000000e+00 +1.7952466021e+02 1.7952466021e+02 0.0000000000e+00 0.0000e+00 1.0000e+00
       21 -1    0    0  501  503 -0.0000000000e+00 -0.0000000000e+00 -8.0521367971e+02 8.0521367971e+02 0.0000000000e+00 0.0000e+00 -1.0000e+00
        6  1    1    2  501    0 -1.0342440416e+02 -1.3332250883e+02 -4.9418006522e+02 5.5010402253e+02 1.7300000000e+02 0.0000e+00 -1.0000e+00
       -6  1    1    2    0  505 +6.7667886538e+01 +6.5078203176e+01 -2.3390989132e+02 3.0570729899e+02 1.7300000000e+02 0.0000e+00 -1.0000e+00
       21  1    1    2  504  503 +2.0583259536e+01 +5.1146200935e+01 +6.6722984910e+01 8.6553804991e+01 0.0000000000e+00 0.0000e+00 1.0000e+00
       21  1    1    2  505  502 +1.5173258084e+01 +1.7098104722e+01 +3.5677952136e+01 4.2373213409e+01 0.0000000000e+00 0.0000e+00 1.0000e+00
<mgrwt>
<rscale>  4 0.21984609E+03</rscale>
<asrwt>0</asrwt>
<pdfrwt beam="1">  1       21 0.27619178E-01 0.21984609E+03</pdfrwt>
<pdfrwt beam="2">  1       21 0.12387903E+00 0.21984609E+03</pdfrwt>
<totfact> 0.59785678E+03</totfact>
</mgrwt>
</event>
<event>
 6      1 +2.5168241e+02 1.76262800e+02 7.54677100e-03 1.16820100e-01
       21 -1    0    0  505  502 +0.0000000000e+00 +0.0000000000e+00 +1.5294916369e+02 1.5294916369e+02 0.0000000000e+00 0.0000e+00 1.0000e+00
       21 -1    0    0  501  503 -0.0000000000e+00 -0.0000000000e+00 -5.3912787539e+02 5.3912787539e+02 0.0000000000e+00 0.0000e+00 1.0000e+00
        6  1    1    2  501    0 -2.6713819754e+01 +6.7910384703e+01 -3.0105546339e+02 3.5480817430e+02 1.7300000000e+02 0.0000e+00 1.0000e+00
       -6  1    1    2    0  502 +7.8787713232e+00 -4.2261056245e+00 +2.0194939886e+01 1.7440404411e+02 1.7300000000e+02 0.0000e+00 1.0000e+00
       21  1    1    2  504  503 +6.7918224525e+00 -4.4182424063e+01 -1.2493773805e+02 1.3269383497e+02 0.0000000000e+00 0.0000e+00 -1.0000e+00
       21  1    1    2  505  504 +1.2043225978e+01 -1.9501855016e+01 +1.9619549855e+01 3.0170985690e+01 0.0000000000e+00 0.0000e+00 1.0000e+00
<mgrwt>
<rscale>  4 0.17626282E+03</rscale>
<asrwt>0</asrwt>
<pdfrwt beam="1">  1       21 0.23530640E-01 0.17626282E+03</pdfrwt>
<pdfrwt beam="2">  1       21 0.82942752E-01 0.17626282E+03</pdfrwt>
<totfact> 0.21751754E+04</totfact>
</mgrwt>
</event>
<event>
 6      1 +2.5168241e+02 2.14403200e+02 7.54677100e-03 1.12989000e-01
       21 -1    0    0  503  502 +0.0000000000e+00 +0.0000000000e+00 +7.0263660513e+02 7.0263660513e+02 0.0000000000e+00 0.0000e+00 1.0000e+00
       21 -1    0    0  504  503 -0.0000000000e+00 -0.0000000000e+00 -3.2540196704e+02 3.2540196704e+02 0.0000000000e+00 0.0000e+00 -1.0000e+00
        6  1    1    2  501    0 -2.1381360305e+01 -1.1151228987e+02 +4.7873606991e+02 5.2154518308e+02 1.7300000000e+02 0.0000e+00 1.0000e+00
       -6  1    1    2    0  502 +1.3600200868e+01 +1.7349281383e+02 +1.2150710636e+02 2.7382055951e+02 1.7300000000e+02 0.0000e+00 -1.0000e+00
       21  1    1    2  504  505 -3.0426261847e+00 -1.9860071769e+01 -4.2654642275e+01 4.7149745836e+01 0.0000000000e+00 0.0000e+00 -1.0000e+00
       21  1    1    2  505  501 +1.0823785622e+01 -4.2120452191e+01 -1.8035389592e+02 1.8552308374e+02 0.0000000000e+00 0.0000e+00 -1.0000e+00
<mgrwt>
<rscale>  4 0.21440319E+03</rscale>
<asrwt>0</asrwt>
<pdfrwt beam="1">  1       21 0.10809794E+00 0.21440319E+03</pdfrwt>
<pdfrwt beam="2">  1       21 0.50061841E-01 0.21440319E+03</pdfrwt>
<totfact> 0.25410649E+03</totfact>
</mgrwt>
</event>
<event>
 6      1 +2.5168241e+02 2.41732500e+02 7.54677100e-03 1.15942100e-01
       21 -1    0    0  504  502 +0.0000000000e+00 +0.0000000000e+00 +3.8446414124e+02 3.8446414124e+02 0.0000000000e+00 0.0000e+00 1.0000e+00
       21 -1    0    0  501  503 -0.0000000000e+00 -0.0000000000e+00 -9.7318222897e+02 9.7318222897e+02 0.0000000000e+00 0.0000e+00 1.0000e+00
        6  1    1    2  501    0 -4.0421430827e+00 +2.0448858626e+02 +1.9797489955e+02 3.3309905687e+02 1.7300000000e+02 0.0000e+00 1.0000e+00
       -6  1    1    2    0  502 -1.3377389044e+02 -8.4415340781e+01 -2.2064729519e+01 2.3545117500e+02 1.7300000000e+02 0.0000e+00 1.0000e+00
       21  1    1    2  504  505 +1.0737698699e+02 -8.8676289225e+01 -6.7685603307e+02 6.9103356728e+02 0.0000000000e+00 0.0000e+00 1.0000e+00
       21  1    1    2  505  503 +3.0439046528e+01 -3.1396956257e+01 -8.7772224691e+01 9.8062571061e+01 0.0000000000e+00 0.0000e+00 1.0000e+00
<mgrwt>
<rscale>  4 0.24173249E+03</rscale>
<asrwt>0</asrwt>
<pdfrwt beam="1">  1       21 0.59148330E-01 0.24173249E+03</pdfrwt>
<pdfrwt beam="2">  1       21 0.14972034E+00 0.24173249E+03</pdfrwt>
<totfact> 0.76477191E+02</totfact>
</mgrwt>
</event>
<event>
 6      1 +2.5168241e+02 1.92681600e+02 7.54677100e-03 1.16820100e-01
       21 -1    0    0  505  502 +0.0000000000e+00 +0.0000000000e+00 +8.0804890682e+02 8.0804890682e+02 0.0000000000e+00 0.0000e+00 1.0000e+00
       21 -1    0    0  501  503 -0.0000000000e+00 -0.0000000000e+00 -6.9451450238e+01 6.9451450238e+01 0.0000000000e+00 0.0000e+00 1.0000e+00
        6  1    1    2  501    0 +6.5287095067e+01 +6.1302751213e+01 +2.5229241045e+02 3.1874894896e+02 1.7300000000e+02 0.0000e+00 1.0000e+00
       -6  1    1    2    0  504 -4.7465722211e+01 -6.3233423963e+01 +3.0230082416e+02 3.5716417650e+02 1.7300000000e+02 0.0000e+00 1.0000e+00
       21  1    1    2  504  502 -1.5441903613e+01 +2.4736870716e+01 +1.8570761682e+01 3.4572219331e+01 0.0000000000e+00 0.0000e+00 1.0000e+00
       21  1    1    2  505  503 -2.3794692423e+00 -2.2806197965e+01 +1.6543346029e+02 1.6701501227e+02 0.0000000000e+00 0.0000e+00 -1.0000e+00
<mgrwt>
<rscale>  4 0.19268165E+03</rscale>
<asrwt>0</asrwt>
<pdfrwt beam="1">  1       21 0.12431521E+00 0.19268165E+03</pdfrwt>
<pdfrwt beam="2">  1       21 0.10684839E-01 0.19268165E+03</pdfrwt>
<totfact> 0.34902011E+04</totfact>
</mgrwt>
</event>
<event>
 6      1 +2.5168241e+02 2.29126100e+02 7.54677100e-03 1.11910500e-01
       21 -1    0    0  501  502 +0.0000000000e+00 +0.0000000000e+00 +2.4264981075e+03 2.4264981075e+03 0.0000000000e+00 0.0000e+00 -1.0000e+00
       21 -1    0    0  505  503 -0.0000000000e+00 -0.0000000000e+00 -4.8875141963e+01 4.8875141963e+01 0.0000000000e+00 0.0000e+00 1.0000e+00
        6  1    1    2  501    0 -5.4095107368e+01 -1.4273315519e+02 +1.6301229205e+03 1.6463683580e+03 1.7300000000e+02 0.0000e+00 -1.0000e+00
       -6  1    1    2    0  504 +2.4494776274e+01 +1.4477634024e+02 +6.9708250545e+02 7.3308471691e+02 1.7300000000e+02 0.0000e+00 -1.0000e+00
       21  1    1    2  504  503 -5.6297659979e+00 -3.3514039786e+01 +2.5682498010e+01 4.2596664564e+01 0.0000000000e+00 0.0000e+00 1.0000e+00
       21  1    1    2  505  502 +3.5230097093e+01 +3.1470854735e+01 +2.4735041597e+01 5.3323510028e+01 0.0000000000e+00 0.0000e+00 1.0000e+00
<mgrwt>
<rscale>  4 0.22912606E+03</rscale>
<asrwt>0</asrwt>
<pdfrwt beam="1">  1       21 0.37330731E+00 0.22912606E+03</pdfrwt>
<pdfrwt beam="2">  1       21 0.75192545E-02 0.22912606E+03</pdfrwt>
<totfact> 0.16158405E+03</totfact>
</mgrwt>
</event>
<event>
 6      1 +2.5168241e+02 1.82386300e+02 7.54677100e-03 1.16820100e-01
       21 -1    0    0  501  502 +0.0000000000e+00 +0.0000000000e+00 +4.6984930204e+02 4.6984930204e+02 0.0000000000e+00 0.0000e+00 -1.0000e+00
       21 -1    0    0  504  503 -0.0000000000e+00 -0.0000000000e+00 -2.9227140694e+02 2.9227140694e+02 0.0000000000e+00 0.0000e+00 -1.0000e+00
        6  1    1    2  501    0 -1.5683368052e+00 -2.2312540190e+01 +2.4369704069e+01 1.7613401604e+02 1.7300000000e+02 0.0000e+00 -1.0000e+00
       -6  1    1    2    0  503 +1.1450767281e+02 +9.8615499707e+00 +1.9924345530e+01 2.0865099292e+02 1.7300000000e+02 0.0000e+00 -1.0000e+00
       21  1    1    2  504  505 -4.8890067267e+01 -4.3024214839e+01 -1.0548953801e+02 1.2397324054e+02 0.0000000000e+00 0.0000e+00 -1.0000e+00
       21  1    1    2  505  502 -6.4049268739e+01 +5.5475205058e+01 +2.3877338351e+02 2.5336245948e+02 0.0000000000e+00 0.0000e+00 -1.0000e+00
<mgrwt>
<rscale>  4 0.18238628E+03</rscale>
<asrwt>0</asrwt>
<pdfrwt beam="1">  1       21 0.72284508E-01 0.18238628E+03</pdfrwt>
<pdfrwt beam="2">  1       21 0.44964832E-01 0.18238628E+03</pdfrwt>
<totfact> 0.82522933E+03</totfact>
</mgrwt>
</event>
<event>
 6      1 +2.5168241e+02 2.59768100e+02 7.54677100e-03 1.09842800e-01
       21 -1    0    0  503  502 +0.0000000000e+00 +0.0000000000e+00 +7.2988750302e+02 7.2988750302e+02 0.0000000000e+00 0.0000e+00 1.0000e+00
       21 -1    0    0  504  503 -0.0000000000e+00 -0.0000000000e+00 -2.0735713380e+02 2.0735713380e+02 0.0000000000e+00 0.0000e+00 1.0000e+00
        6  1    1    2  501    0 +3.5826459884e+01 -1.9915063440e+02 +4.7476617968e+01 2.7042104146e+02 1.7300000000e+02 0.0000e+00 1.0000e+00
       -6  1    1    2    0  505 -8.4126180374e+01 -1.7926628872e+00 +2.2363681239e+02 2.9499635883e+02 1.7300000000e+02 0.0000e+00 -1.0000e+00
       21  1    1    2  504  501 +3.1734831204e+01 +1.8857891020e+02 +9.4046847755e+01 2.1310540691e+02 0.0000000000e+00 0.0000e+00 1.0000e+00
       21  1    1    2  505  502 +1.6564889286e+01 +1.2364387085e+01 +1.5737009111e+02 1.5872182963e+02 0.0000000000e+00 0.0000e+00 1.0000e+00
<mgrwt>
<rscale>  4 0.23999099E+03</rscale>
<asrwt>0</asrwt>
<pdfrwt beam="1">  1       21 0.11229038E+00 0.25976811E+03</pdfrwt>
<pdfrwt beam="2">  1       21 0.31901098E-01 0.25976811E+03</pdfrwt>
<totfact> 0.56036217E+03</totfact>
</mgrwt>
</event>
<event>
 6      1 +2.5168241e+02 3.99375500e+02 7.54677100e-03 1.12068800e-01
       21 -1    0    0  504  502 +0.0000000000e+00 +0.0000000000e+00 +4.2028710253e+02 4.2028710253e+02 0.0000000000e+00 0.0000e+00 -1.0000e+00
       21 -1    0    0  502  503 -0.0000000000e+00 -0.0000000000e+00 -1.0262948337e+03 1.0262948337e+03 0.0000000000e+00 0.0000e+00 1.0000e+00
        6  1    1    2  501    0 +1.2931453392e+02 +3.4874067238e+02 +2.1292556714e+02 4.6217810679e+02 1.7300000000e+02 0.0000e+00 -1.0000e+00
       -6  1    1    2    0  505 +5.5301685692e+01 -1.0209999952e+02 -2.0460228045e+02 2.9201674525e+02 1.7300000000e+02 0.0000e+00 1.0000e+00
       21  1    1    2  504  501 -1.1173230430e+02 -1.7484511503e+02 -3.2589925213e+02 3.8634860503e+02 0.0000000000e+00 0.0000e+00 1.0000e+00
       21  1    1    2  505  503 -7.2883915311e+01 -7.1795557824e+01 -2.8843176570e+02 3.0603847911e+02 0.0000000000e+00 0.0000e+00 1.0000e+00
<mgrwt>
<rscale>  4 0.33941958E+03</rscale>
<asrwt>0</asrwt>
<pdfrwt beam="1">  1       21 0.64659556E-01 0.39937549E+03</pdfrwt>
<pdfrwt beam="2">  1       21 0.15789151E+00 0.39937549E+03</pdfrwt>
<totfact> 0.49003991E+02</totfact>
</mgrwt>
</event>
<event>
 6      1 +2.5168241e+02 2.50052400e+02 7.54677100e-03 1.17132900e-01
       21 -1    0    0  503  502 +0.0000000000e+00 +0.0000000000e+00 +1.1173590966e+02 1.1173590966e+02 0.0000000000e+00 0.0000e+00 -1.0000e+00
       21 -1    0    0  504  503 -0.0000000000e+00 -0.0000000000e+00 -1.1016530669e+03 1.1016530669e+03 0.0000000000e+00 0.0000e+00 -1.0000e+00
        6  1    1    2  501    0 -2.1511121683e+02 -5.8784933178e+01 -1.7611561367e+02 3.3267734121e+02 1.7300000000e+02 0.0000e+00 -1.0000e+00
       -6  1    1    2    0  505 +9.3605654553e+01 +1.9882129416e+01 -4.9008031695e+02 5.2845532895e+02 1.7300000000e+02 0.0000e+00 -1.0000e+00
       21  1    1    2  504  501 +9.3285556242e+01 +2.2280491780e+01 -2.8911923954e+02 3.0461213041e+02 0.0000000000e+00 0.0000e+00 -1.0000e+00
       21  1    1    2  505  502 +2.8220006038e+01 +1.6622311982e+01 -3.4601987111e+01 4.7644176019e+01 0.0000000000e+00 0.0000e+00 -1.0000e+00
<mgrwt>
<rscale>  4 0.25005238E+03</rscale>
<asrwt>0</asrwt>
<pdfrwt beam="1">  1       21 0.17190141E-01 0.25005238E+03</pdfrwt>
<pdfrwt beam="2">  1       21 0.16948508E+00 0.25005238E+03</pdfrwt>
<totfact> 0.62967478E+03</totfact>
</mgrwt>
</event>
<event>
 6      1 +2.5168241e+02 2.05300800e+02 7.54677100e-03 1.16820100e-01
       21 -1    0    0  501  502 +0.0000000000e+00 +0.0000000000e+00 +7.2251551470e+02 7.2251551470e+02 0.0000000000e+00 0.0000e+00 -1.0000e+00
       21 -1    0    0  504  503 -0.0000000000e+00 -0.0000000000e+00 -3.9787539312e+02 3.9787539312e+02 0.0000000000e+00 0.0000e+00 -1.0000e+00
        6  1    1    2  501    0 -1.4866076594e+02 +3.4392228608e+01 +3.2199876612e+02 3.9609980321e+02 1.7300000000e+02 0.0000e+00 -1.0000e+00
       -6  1    1    2    0  503 +6.0122010841e+01 -5.0259875013e+01 +2.9238119058e+02 3.4864949710e+02 1.7300000000e+02 0.0000e+00 1.0000e+00
       21  1    1    2  504  505 +5.8764439012e+01 +2.0013756393e+01 -3.2409734507e+02 3.2998924046e+02 0.0000000000e+00 0.0000e+00 -1.0000e+00
       21  1    1    2  505  502 +2.9774316091e+01 -4.1461099887e+00 +3.4357509957e+01 4.5652367049e+01 0.0000000000e+00 0.0000e+00 -1.0000e+00
<mgrwt>
<rscale>  4 0.20530081E+03</rscale>
<asrwt>0</asrwt>
<pdfrwt beam="1">  1       21 0.11115623E+00 0.20530081E+03</pdfrwt>
<pdfrwt beam="2">  1       21 0.61211599E-01 0.20530081E+03</pdfrwt>
<totfact> 0.15618798E+03</totfact>
</mgrwt>
</event>
<event>
 6      1 +2.5168241e+02 2.26521000e+02 7.54677100e-03 1.07064900e-01
       21 -1    0    0  505  502 +0.0000000000e+00 +0.0000000000e+00 +1.4710887173e+02 1.4710887173e+02 0.0000000000e+00 0.0000e+00 -1.0000e+00
       21 -1    0    0  504  503 -0.0000000000e+00 -0.0000000000e+00 -7.4362639896e+02 7.4362639896e+02 0.0000000000e+00 0.0000e+00 -1.0000e+00
        6  1    1    2  501    0 -1.5878769478e+02 +4.7883338792e+01 -3.8507398729e+02 4.5356071461e+02 1.7300000000e+02 0.0000e+00 -1.0000e+00
       -6  1    1    2    0  503 +1.0504062717e+02 -7.3900296118e+01 -2.6928442292e+02 3.4487372697e+02 1.7300000000e+02 0.0000e+00 -1.0000e+00
       21  1    1    2  504  502 +4.5215183463e+01 +2.5921336402e+00 +4.6505753509e+01 6.4914690802e+01 0.0000000000e+00 0.0000e+00 -1.0000e+00
       21  1    1    2  505  501 +8.5318841443e+00 +2.3424823686e+01 +1.1335129474e+01 2.7386138318e+01 0.0000000000e+00 0.0000e+00 -1.0000e+00
<mgrwt>
<rscale>  4 0.22652096E+03</rscale>
<asrwt>0</asrwt>
<pdfrwt beam="1">  1       21 0.22632134E-01 0.22652096E+03</pdfrwt>
<pdfrwt beam="2">  1       21 0.11440406E+00 0.22652096E+03</pdfrwt>
<totfact> 0.10617840E+04</totfact>
</mgrwt>
</event>
<event>
 6      1 +2.5168241e+02 1.82481700e+02 7.54677100e-03 1.15832300e-01
       21 -1    0    0  501  502 +0.0000000000e+00 +0.0000000000e+00 +8.8268565338e+02 8.8268565338e+02 0.0000000000e+00 0.0000e+00 -1.0000e+00
       21 -1    0    0  502  503 -0.0000000000e+00 -0.0000000000e+00 -3.2829049563e+02 3.2829049563e+02 0.0000000000e+00 0.0000e+00 -1.0000e+00
        6  1    1    2  501    0 -1.3026946257e+01 +1.2806898365e+01 +3.5872449903e+02 3.9868030323e+02 1.7300000000e+02 0.0000e+00 -1.0000e+00
       -6  1    1    2    0  504 -5.3785009041e+00 -2.7228479829e+01 -1.7976069533e+02 2.5102435334e+02 1.7300000000e+02 0.0000e+00 -1.0000e+00
       21  1    1    2  504  505 +1.1941903108e+02 -1.4232420843e+02 +3.1416681871e+02 3.6499023996e+02 0.0000000000e+00 0.0000e+00 -1.0000e+00
       21  1    1    2  505  503 -1.0101358392e+02 +1.5674578989e+02 +6.1264535340e+01 1.9628125248e+02 0.0000000000e+00 0.0000e+00 -1.0000e+00
<mgrwt>
<rscale>  4 0.18031340E+03</rscale>
<asrwt>0</asrwt>
<pdfrwt beam="1">  1       21 0.13579779E+00 0.18248171E+03</pdfrwt>
<pdfrwt beam="2">  1       21 0.50506231E-01 0.18248171E+03</pdfrwt>
<totfact> 0.14587337E+03</totfact>
</mgrwt>
</event>
<event>
 6      1 +2.5168241e+02 1.74649000e+02 7.54677100e-03 1.09842800e-01
       21 -1    0    0  501  502 +0.0000000000e+00 +0.0000000000e+00 +9.8506944984e+01 9.8506944984e+01 0.0000000000e+00 0.0000e+00 1.0000e+00
       21 -1    0    0  505  503 -0.0000000000e+00 -0.0000000000e+00 -1.3075250423e+03 1.3075250423e+03 0.0000000000e+00 0.0000e+00 1.0000e+00
        6  1    1    2  501    0 +1.3181653457e+01 +5.8498394810e+01 -4.9898663044e+02 5.3151902651e+02 1.7300000000e+02 0.0000e+00 1.0000e+00
       -6  1    1    2    0  504 +2.7949067088e+01 +1.1511608604e+01 -4.2265655729e+02 4.5769119820e+02 1.7300000000e+02 0.0000e+00 -1.0000e+00
       21  1    1    2  504  503 +5.3864756992e+01 -2.4647482398e+01 -3.0446416600e+02 3.1017307880e+02 0.0000000000e+00 0.0000e+00 1.0000e+00
       21  1    1    2  505  502 -9.4995477537e+01 -4.5362521015e+01 +1.7089256424e+01 1.0664868377e+02 0.0000000000e+00 0.0000e+00 1.0000e+00
<mgrwt>
<rscale>  4 0.17464901E+03</rscale>
<asrwt>0</asrwt>
<pdfrwt beam="1">  1       21 0.15154916E-01 0.17464901E+03</pdfrwt>
<pdfrwt beam="2">  1       21 0.20115768E+00 0.17464901E+03</pdfrwt>
<totfact> 0.51704566E+03</totfact>
</mgrwt>
</event>
<event>
 6      1 +2.5168241e+02 1.91807500e+02 7.54677100e-03 1.16820100e-01
       21 -1    0    0  505  502 +0.0000000000e+00 +0.0000000000e+00 +1.9766326729e+02 1.9766326729e+02 0.0000000000e+00 0.0000e+00 -1.0000e+00
       21 -1    0    0  501  503 -0.0000000000e+00 -0.0000000000e+00 -1.0656194989e+03 1.0656194989e+03 0.0000000000e+00 0.0000e+00 -1.0000e+00
        6  1    1    2  501    0 +5.4809095126e+01 +2.5050902165e+01 -7.0770419907e+02 7.3103065462e+02 1.7300000000e+02 0.0000e+00 -1.0000e+00
       -6  1    1    2    0  502 -8.0867930367e+01 +1.5017414795e+01 +1.1329216055e+02 2.2255169860e+02 1.7300000000e+02 0.0000e+00 -1.0000e+00
       21  1    1    2  504  503 +2.1130997388e+01 -7.0589064333e+01 -2.6843596436e+02 2.7836523133e+02 0.0000000000e+00 0.0000e+00 1.0000e+00
       21  1    1    2  505  504 +4.9278378529e+00 +3.0520747373e+01 -5.1082287087e+00 3.1335181612e+01 0.0000000000e+00 0.0000e+00 -1.0000e+00
<mgrwt>
<rscale>  4 0.19180746E+03</rscale>
<asrwt>0</asrwt>
<pdfrwt beam="1">  1       21 0.30409734E-01 0.19180746E+03</pdfrwt>
<pdfrwt beam="2">  1       21 0.16394146E+00 0.19180746E+03</pdfrwt>
<totfact> 0.24475668E+03</totfact>
</mgrwt>
</event>
<event>
 6      1 +2.5168241e+02 1.93712400e+02 7.54677100e-03 1.03924000e-01
       21 -1    0    0  504  502 +0.0000000000e+00 +0.0000000000e+00 +1.0773817500e+03 1.0773817500e+03 0.0000000000e+00 0.0000e+00 1.0000e+00
       21 -1    0    0  501  503 -0.0000000000e+00 -0.0000000000e+00 -8.0730666236e+02 8.0730666236e+02 0.0000000000e+00 0.0000e+00 -1.0000e+00
        6  1    1    2  501    0 -8.5148005743e+01 +1.1396652689e+02 -4.7225907578e+02 5.2268172609e+02 1.7300000000e+02 0.0000e+00 -1.0000e+00
       -6  1    1    2    0  505 +2.3500150697e+01 -2.1174585252e+01 -2.7611775270e+02 3.2736926169e+02 1.7300000000e+02 0.0000e+00 -1.0000e+00
       21  1    1    2  504  503 +6.4215743781e+01 -6.5398380483e+01 +9.9279635352e+02 9.9701815905e+02 0.0000000000e+00 0.0000e+00 1.0000e+00
       21  1    1    2  505  502 -2.5678887345e+00 -2.7393561151e+01 +2.5655562580e+01 3.7619265495e+01 0.0000000000e+00 0.0000e+00 -1.0000e+00
<mgrwt>
<rscale>  4 0.19371243E+03</rscale>
<asrwt>0</asrwt>
<pdfrwt beam="1">  1       21 0.16575104E+00 0.19371243E+03</pdfrwt>
<pdfrwt beam="2">  1       21 0.12420103E+00 0.19371243E+03</pdfrwt>
<totfact> 0.11070093E+02</totfact>
</mgrwt>
</event>
<event>
 6      1 +2.5168241e+02 2.26914700e+02 7.54677100e-03 1.06249800e-01
       21 -1    0    0  504  502 +0.0000000000e+00 +0.0000000000e+00 +1.2772555437e+02 1.2772555437e+02 0.0000000000e+00 0.0000e+00 1.0000e+00
       21 -1    0    0  502  503 -0.0000000000e+00 -0.0000000000e+00 -6.3830454773e+02 6.3830454773e+02 0.0000000000e+00 0.0000e+00 1.0000e+00
        6  1    1    2  501    0 +5.8718898288e+01 -8.7100342531e+01 -9.4450168180e+01 2.2334773998e+02 1.7300000000e+02 0.0000e+00 1.0000e+00
       -6  1    1    2    0  503 -1.0561485266e+02 +1.4575772923e+02 -3.4137614592e+02 4.2292609961e+02 1.7300000000e+02 0.0000e+00 1.0000e+00
       21  1    1    2  504  505 +2.9413040305e+01 +1.1240827481e+00 -3.5577552924e+01 4.6175239838e+01 0.0000000000e+00 0.0000e+00 1.0000e+00
       21  1    1    2  505  501 +1.7482914062e+01 -5.9781469446e+01 -3.9175126344e+01 7.3581022671e+01 0.0000000000e+00 0.0000e+00 1.0000e+00
<mgrwt>
<rscale>  4 0.22691469E+03</rscale>
<asrwt>0</asrwt>
<pdfrwt beam="1">  1       21 0.19650085E-01 0.22691469E+03</pdfrwt>
<pdfrwt beam="2">  1       21 0.98200700E-01 0.22691469E+03</pdfrwt>
<totfact> 0.20033056E+04</totfact>
</mgrwt>
</event>
<event>
 6      1 +2.5168241e+02 2.33909200e+02 7.54677100e-03 1.17132900e-01
       21 -1    0    0  505  502 +0.0000000000e+00 +0.0000000000e+00 +1.1190170101e+02 1.1190170101e+02 0.0000000000e+00 0.0000e+00 -1.0000e+00
       21 -1    0    0  504  503 -0.0000000000e+00 -0.0000000000e+00 -6.9232552349e+02 6.9232552349e+02 0.0000000000e+00 0.0000e+00 -1.0000e+00
        6  1    1    2  501    0 -1.4620031637e+02 +1.0452599358e+02 -1.9883373931e+02 3.1900481459e+02 1.7300000000e+02 0.0000e+00 -1.0000e+00
       -6  1    1    2    0  502 +7.6126509521e+01 -1.1303341527e+02 -2.6770415755e+02 3.4665013254e+02 1.7300000000e+02 0.0000e+00 -1.0000e+00
       21  1    1    2  504  501 +3.2078765630e+01 +1.1579413834e+01 -8.2232820267e+01 8.9024528969e+01 0.0000000000e+00 0.0000e+00 1.0000e+00
       21  1    1    2  505  503 +3.7995041222e+01 -3.0719921456e+00 -3.1653105360e+01 4.9547748407e+01 0.0000000000e+00 0.0000e+00 1.0000e+00
<mgrwt>
<rscale>  4 0.23390924E+03</rscale>
<asrwt>0</asrwt>
<pdfrwt beam="1">  1       21 0.17215646E-01 0.23390924E+03</pdfrwt>
<pdfrwt beam="2">  1       21 0.10651162E+00 0.23390924E+03</pdfrwt>
<totfact> 0.21005017E+04</totfact>
</mgrwt>
</event>
<event>
 6      1 +2.5168241e+02 2.74152600e+02 7.54677100e-03 1.11910500e-01
       21 -1    0    0  501  502 +0.0000000000e+00 +0.0000000000e+00 +2.0290100476e+03 2.0290100476e+03 0.0000000000e+00 0.0000e+00 1.0000e+00
       21 -1    0    0  504  503 -0.0000000000e+00 -0.0000000000e+00 -2.7734027189e+02 2.7734027189e+02 0.0000000000e+00 0.0000e+00 -1.0000e+00
        6  1    1    2  501    0 +1.5659756791e+02 -1.4351437923e+02 +1.8712534687e+03 1.8912000739e+03 1.7300000000e+02 0.0000e+00 1.0000e+00
       -6  1    1    2    0  503 -2.0722975668e+02 +9.3480805943e+01 -1.7477862566e+01 2.8621199977e+02 1.7300000000e+02 0.0000e+00 -1.0000e+00
       21  1    1    2  504  505 +2.0261654261e+00 +2.1142086603e+01 -3.7378478671e+01 4.2991206543e+01 0.0000000000e+00 0.0000e+00 -1.0000e+00
       21  1    1    2  505  502 +4.8606023345e+01 +2.8891486687e+01 -6.4727351723e+01 8.5947039329e+01 0.0000000000e+00 0.0000e+00 -1.0000e+00
<mgrwt>
<rscale>  4 0.27415263E+03</rscale>
<asrwt>0</asrwt>
<pdfrwt beam="1">  1       21 0.31215538E+00 0.27415263E+03</pdfrwt>
<pdfrwt beam="2">  1       21 0.42667736E-01 0.27415263E+03</pdfrwt>
<totfact> 0.13748559E+02</totfact>
</mgrwt>
</event>
<event>
 6      1 +2.5168241e+02 2.15098300e+02 7.54677100e-03 1.16820100e-01
       21 -1    0    0  501  502 +0.0000000000e+00 +0.0000000000e+00 +7.7594793469e+02 7.7594793469e+02 0.0000000000e+00 0.0000e+00 1.0000e+00
       21 -1    0    0  504  503 -0.0000000000e+00 -0.0000000000e+00 -1.8279693687e+02 1.8279693687e+02 0.0000000000e+00 0.0000e+00 1.0000e+00
        6  1    1    2  501    0 -3.8040660373e+01 -6.3451539417e+01 +1.5339572205e+02 2.4276004045e+02 1.7300000000e+02 0.0000e+00 -1.0000e+00
       -6  1    1    2    0  503 +1.0381591746e+02 +1.5791982919e+02 +9.0571004216e+01 2.7175084908e+02 1.7300000000e+02 0.0000e+00 -1.0000e+00
       21  1    1    2  504  505 +1.9196311641e+01 -7.4753611000e+01 -7.0267275002e+00 7.7498229899e+01 0.0000000000e+00 0.0000e+00 -1.0000e+00
       21  1    1    2  505  502 -8.4971568725e+01 -1.9714678776e+01 +3.5621099905e+02 3.6673575213e+02 0.0000000000e+00 0.0000e+00 1.0000e+00
<mgrwt>
<rscale>  4 0.21509828E+03</rscale>
<asrwt>0</asrwt>
<pdfrwt beam="1">  1       21 0.11937660E+00 0.21509828E+03</pdfrwt>
<pdfrwt beam="2">  1       21 0.28122606E-01 0.21509828E+03</pdfrwt>
<totfact> 0.63539192E+03</totfact>
</mgrwt>
</event>
<event>
 6      1 +2.5168241e+02 1.78002900e+02 7.54677100e-03 1.16820100e-01
       21 -1    0    0  505  502 +0.0000000000e+00 +0.0000000000e+00 +6.1740781225e+02 6.1740781225e+02 0.0000000000e+00 0.0000e+00 -1.0000e+00
       21 -1    0    0  504  503 -0.0000000000e+00 -0.0000000000e+00 -8.2387573999e+01 8.2387573999e+01 0.0000000000e+00 0.0000e+00 -1.0000e+00
        6  1    1    2  501    0 -1.5548271369e+01 -3.3052931890e+01 +2.6897812660e+02 3.2188892127e+02 1.7300000000e+02 0.0000e+00 -1.0000e+00
       -6  1    1    2    0  503 +6.9697836173e+01 -3.7744222524e+00 +1.9390592123e+02 2.6907348609e+02 1.7300000000e+02 0.0000e+00 -1.0000e+00
       21  1    1    2  504  502 -3.2118293742e+01 +4.7171540202e+01 +5.2821737920e+01 7.7761655042e+01 0.0000000000e+00 0.0000e+00 -1.0000e+00
       21  1    1    2  505  501 -2.2031271062e+01 -1.0344186059e+01 +1.9314452507e+01 3.1071323844e+01 0.0000000000e+00 0.0000e+00 -1.0000e+00
<mgrwt>
<rscale>  4 0.17800286E+03</rscale>
<asrwt>0</asrwt>
<pdfrwt beam="1">  1       21 0.94985814E-01 0.17800286E+03</pdfrwt>
<pdfrwt beam="2">  1       21 0.12675012E-01 0.17800286E+03</pdfrwt>
<totfact> 0.49658448E+04</totfact>
</mgrwt>
</event>
<event>
 6      1 +2.5168241e+02 2.33843900e+02 7.54677100e-03 1.05831300e-01
       21 -1    0    0  504  502 +0.0000000000e+00 +0.0000000000e+00 +2.8368154809e+02 2.8368154809e+02 0.0000000000e+00 0.0000e+00 -1.0000e+00
       21 -1    0    0  501  503 -0.0000000000e+00 -0.0000000000e+00 -7.5231576570e+02 7.5231576570e+02 0.0000000000e+00 0.0000e+00 -1.0000e+00
        6  1    1    2  501    0 +1.6507491893e+02 +2.6746530020e+01 -3.2511896137e+02 4.0447057343e+02 1.7300000000e+02 0.0000e+00 -1.0000e+00
       -6  1    1    2    0  505 -1.4834655959e+02 +5.3952573850e-01 -2.8170697479e+02 3.6234626046e+02 1.7300000000e+02 0.0000e+00 -1.0000e+00
       21  1    1    2  504  503 -5.7308127197e+01 -6.1247529084e+01 -3.2894880899e+01 9.0097471946e+01 0.0000000000e+00 0.0000e+00 -1.0000e+00
       21  1    1    2  505  502 +4.0579767853e+01 +3.3961473325e+01 +1.7108659944e+02 1.7908300796e+02 0.0000000000e+00 0.0000e+00 -1.0000e+00
<mgrwt>
<rscale>  4 0.23384386E+03</rscale>
<asrwt>0</asrwt>
<pdfrwt beam="1">  1       21 0.43643317E-01 0.23384386E+03</pdfrwt>
<pdfrwt beam="2">  1       21 0.11574088E+00 0.23384386E+03</pdfrwt>
<totfact> 0.28154039E+03</totfact>
</mgrwt>
</event>
<event>
 6      1 +2.5168241e+02 2.26894700e+02 7.54677100e-03 1.07240600e-01
       21 -1    0    0  505  502 +0.0000000000e+00 +0.0000000000e+00 +1.8444834058e+02 1.8444834058e+02 0.0000000000e+00 0.0000e+00 1.0000e+00
       21 -1    0    0  504  503 -0.0000000000e+00 -0.0000000000e+00 -4.2275424052e+02 4.2275424052e+02 0.0000000000e+00 0.0000e+00 -1.0000e+00
        6  1    1    2  501    0 -1.2856390461e+02 -2.7490451363e+01 -6.3607386039e+01 2.2640517230e+02 1.7300000000e+02 0.0000e+00 -1.0000e+00
       -6  1    1    2    0  502 +1.4351747701e+02 +7.1798361024e+01 -1.2741639122e+02 2.6817197394e+02 1.7300000000e+02 0.0000e+00 1.0000e+00
       21  1    1    2  504  501 -4.3352253299e+01 -5.5302146946e+01 -2.3867570370e+01 7.4211900921e+01 0.0000000000e+00 0.0000e+00 1.0000e+00
       21  1    1    2  505  503 +2.8398680893e+01 +1.0994237285e+01 -2.3414552318e+01 3.8413533946e+01 0.0000000000e+00 0.0000e+00 -1.0000e+00
<mgrwt>
<rscale>  4 0.22689469E+03</rscale>
<asrwt>0</asrwt>
<pdfrwt beam="1">  1       21 0.28376668E-01 0.22689469E+03</pdfrwt>
<pdfrwt beam="2">  1       21 0.65039114E-01 0.22689469E+03</pdfrwt>
<totfact> 0.25360675E+04</totfact>
</mgrwt>
</event>
<event>
 6      1 +2.5168241e+02 1.84678400e+02 7.54677100e-03 1.16820100e-01
       21 -1    0    0  505  502 +0.0000000000e+00 +0.0000000000e+00 +1.8002827344e+02 1.8002827344e+02 0.0000000000e+00 0.0000e+00 -1.0000e+00
       21 -1    0    0  501  503 -0.0000000000e+00 -0.0000000000e+00 -8.3077850759e+02 8.3077850759e+02 0.0000000000e+00 0.0000e+00 -1.0000e+00
        6  1    1    2  501    0 -8.4721022065e+01 -1.9972179085e+01 -6.2294825692e+02 6.5235731798e+02 1.7300000000e+02 0.0000e+00 -1.0000e+00
       -6  1    1    2    0  502 +6.2606113614e+01 -1.4365208680e+01 +9.6373760789e+01 2.0818930436e+02 1.7300000000e+02 0.0000e+00 -1.0000e+00
       21  1    1    2  504  503 +2.4503955874e+01 +3.1259219694e+00 -1.1502450722e+02 1.1764715254e+02 0.0000000000e+00 0.0000e+00 1.0000e+00
       21  1    1    2  505  504 -2.3890474227e+00 +3.1211465796e+01 -9.1512308085e+00 3.2613006148e+01 0.0000000000e+00 0.0000e+00 -1.0000e+00
<mgrwt>
<rscale>  4 0.18467835E+03</rscale>
<asrwt>0</asrwt>
<pdfrwt beam="1">  1       21 0.27696658E-01 0.18467835E+03</pdfrwt>
<pdfrwt beam="2">  1       21 0.12781208E+00 0.18467835E+03</pdfrwt>
<totfact> 0.56495908E+03</totfact>
</mgrwt>
</event>
<event>
 6      1 +2.5168241e+02 1.98367300e+02 7.54677100e-03 1.15942100e-01
       21 -1    0    0  503  502 +0.0000000000e+00 +0.0000000000e+00 +1.1847395342e+02 1.1847395342e+02 0.0000000000e+00 0.0000e+00 -1.0000e+00
       21 -1    0    0  501  503 -0.0000000000e+00 -0.0000000000e+00 -1.2870772214e+03 1.2870772214e+03 0.0000000000e+00 0.0000e+00 -1.0000e+00
        6  1    1    2  501    0 +8.1783191034e+01 +4.6043607611e+01 -1.1913432848e+01 1.9717868551e+02 1.7300000000e+02 0.0000e+00 -1.0000e+00
       -6  1    1    2    0  505 -1.4452387040e+02 +3.5286253293e+01 -6.0593787035e+02 6.4747352958e+02 1.7300000000e+02 0.0000e+00 -1.0000e+00
       21  1    1    2  504  502 +3.4051578089e+01 -6.4108288435e+01 -3.6258855739e+02 3.6978351041e+02 0.0000000000e+00 0.0000e+00 -1.0000e+00
       21  1    1    2  505  504 +2.8689101281e+01 -1.7221572469e+01 -1.8816340735e+02 1.9111544929e+02 0.0000000000e+00 0.0000e+00 -1.0000e+00
<mgrwt>
<rscale>  4 0.19836732E+03</rscale>
<asrwt>0</asrwt>
<pdfrwt beam="1">  1       21 0.18226762E-01 0.19836732E+03</pdfrwt>
<pdfrwt beam="2">  1       21 0.19801188E+00 0.19836732E+03</pdfrwt>
<totfact> 0.37729254E+03</totfact>
</mgrwt>
</event>
<event>
 6      1 +2.5168241e+02 2.99543000e+02 7.54677100e-03 1.16820100e-01
       21 -1    0    0  505  502 +0.0000000000e+00 +0.0000000000e+00 +7.1923195116e+02 7.1923195116e+02 0.0000000000e+00 0.0000e+00 1.0000e+00
       21 -1    0    0  501  503 -0.0000000000e+00 -0.0000000000e+00 -2.7962178577e+02 2.7962178577e+02 0.0000000000e+00 0.0000e+00 -1.0000e+00
        6  1    1    2  501    0 +1.3744354256e+02 -2.0456574917e+02 -6.4436509368e+01 3.0792683687e+02 1.7300000000e+02 0.0000e+00 -1.0000e+00
       -6  1    1    2    0  502 -7.2187572684e+01 +2.2673836346e+02 +4.4933634090e+02 5.3707865194e+02 1.7300000000e+02 0.0000e+00 1.0000e+00
       21  1    1    2  504  503 -4.1221450785e+01 -2.4078490405e+01 -3.6125750287e+01 5.9866948634e+01 0.0000000000e+00 0.0000e+00 1.0000e+00
       21  1    1    2  505  504 -2.4034519096e+01 +1.9058761182e+00 +9.0836084144e+01 9.3981299494e+01 0.0000000000e+00 0.0000e+00 1.0000e+00
<mgrwt>
<rscale>  4 0.29954299E+03</rscale>
<asrwt>0</asrwt>
<pdfrwt beam="1">  1       21 0.11065107E+00 0.29954299E+03</pdfrwt>
<pdfrwt beam="2">  1       21 0.43018737E-01 0.29954299E+03</pdfrwt>
<totfact> 0.31053909E+03</totfact>
</mgrwt>
</event>
<event>
 6      1 +2.5168241e+02 2.35256900e+02 7.54677100e-03 1.17132900e-01
       21 -1    0    0  505  502 +0.0000000000e+00 +0.0000000000e+00 +1.7565535380e+02 1.7565535380e+02 0.0000000000e+00 0.0000e+00 1.0000e+00
       21 -1    0    0  504  503 -0.0000000000e+00 -0.0000000000e+00 -1.1669998005e+03 1.1669998005e+03 0.0000000000e+00 0.0000e+00 -1.0000e+00
        6  1    1    2  501    0 +1.6168541430e+02 -9.9232522453e+01 -8.8739107861e+02 9.2378633520e+02 1.7300000000e+02 0.0000e+00 -1.0000e+00
       -6  1    1    2    0  502 -1.1583155291e+02 +7.9504521443e+01 +2.2794073683e+01 2.2402340810e+02 1.7300000000e+02 0.0000e+00 1.0000e+00
       21  1    1    2  504  501 -4.0698359563e+01 -3.6142431244e+00 -1.5357234859e+02 1.5891471133e+02 0.0000000000e+00 0.0000e+00 -1.0000e+00
       21  1    1    2  505  503 -5.1555018222e+00 +2.3342244134e+01 +2.6824906768e+01 3.5930699734e+01 0.0000000000e+00 0.0000e+00 1.0000e+00
<mgrwt>
<rscale>  4 0.23525693E+03</rscale>
<asrwt>0</asrwt>
<pdfrwt beam="1">  1       21 0.27023901E-01 0.23525693E+03</pdfrwt>
<pdfrwt beam="2">  1       21 0.17953843E+00 0.23525693E+03</pdfrwt>
<totfact> 0.23001468E+03</totfact>
</mgrwt>
</event>
<event>
 6      1 +2.5168241e+02 2.10016000e+02 7.54677100e-03 1.14278100e-01
       21 -1    0    0  504  502 +0.0000000000e+00 +0.0000000000e+00 +2.8437009515e+02 2.8437009515e+02 0.0000000000e+00 0.0000e+00 1.0000e+00
       21 -1    0    0  502  503 -0.0000000000e+00 -0.0000000000e+00 -2.9621250652e+02 2.9621250652e+02 0.0000000000e+00 0.0000e+00 1.0000e+00
        6  1    1    2  501    0 -1.1280967962e+02 +5.0332208476e+01 -1.6280658601e+02 2.6775798676e+02 1.7300000000e+02 0.0000e+00 1.0000e+00
       -6  1    1    2    0  505 +8.4757302331e+01 -6.7223694435e+01 +9.3810261839e+01 2.2457112597e+02 1.7300000000e+02 0.0000e+00 1.0000e+00
       21  1    1    2  504  501 -1.1302421246e+01 +2.2651378609e+01 +1.1799943246e+01 2.7929703535e+01 0.0000000000e+00 0.0000e+00 1.0000e+00
       21  1    1    2  505  503 +3.9354798534e+01 -5.7598926501e+00 +4.5353969556e+01 6.0323785404e+01 0.0000000000e+00 0.0000e+00 1.0000e+00
<mgrwt>
<rscale>  4 0.21001596E+03</rscale>
<asrwt>0</asrwt>
<pdfrwt beam="1">  1       21 0.43749246E-01 0.21001596E+03</pdfrwt>
<pdfrwt beam="2">  1       21 0.45571155E-01 0.21001596E+03</pdfrwt>
<totfact> 0.22950282E+04</totfact>
</mgrwt>
</event>
<event>
 6      1 +2.5168241e+02 3.13104000e+02 7.54677100e-03 1.03924000e-01
       21 -1    0    0  504  502 +0.0000000000e+00 +0.0000000000e+00 +4.8346465087e+02 4.8346465087e+02 0.0000000000e+00 0.0000e+00 -1.0000e+00
       21 -1    0    0  501  503 -0.0000000000e+00 -0.0000000000e+00 -1.3435683625e+03 1.3435683625e+03 0.0000000000e+00 0.0000e+00 1.0000e+00
        6  1    1    2  501    0 -1.8428996082e+02 -2.9616593064e+02 -5.5829953966e+02 6.8066469287e+02 1.7300000000e+02 0.0000e+00 1.0000e+00
       -6  1    1    2    0  505 +1.6815335339e+02 +1.4821371404e+02 -6.7670982858e+02 7.3355848259e+02 1.7300000000e+02 0.0000e+00 1.0000e+00
       21  1    1    2  504  503 -1.9657629004e+01 +8.6035761635e+01 +2.8247950802e+02 2.9594466900e+02 0.0000000000e+00 0.0000e+00 -1.0000e+00
       21  1    1    2  505  502 +3.5794236438e+01 +6.1916454970e+01 +9.2426148596e+01 1.1686516890e+02 0.0000000000e+00 0.0000e+00 -1.0000e+00
<mgrwt>
<rscale>  4 0.31310399E+03</rscale>
<asrwt>0</asrwt>
<pdfrwt beam="1">  1       21 0.74379178E-01 0.31310399E+03</pdfrwt>
<pdfrwt beam="2">  1       21 0.20670282E+00 0.31310399E+03</pdfrwt>
<totfact> 0.17352500E+02</totfact>
</mgrwt>
</event>
<event>
 6      1 +2.5168241e+02 1.92381200e+02 7.54677100e-03 1.11910500e-01
       21 -1    0    0  501  502 +0.0000000000e+00 +0.0000000000e+00 +2.0905947775e+02 2.0905947775e+02 0.0000000000e+00 0.0000e+00 -1.0000e+00
       21 -1    0    0  505  503 -0.0000000000e+00 -0.0000000000e+00 -4.7262625921e+02 4.7262625921e+02 0.0000000000e+00 0.0000e+00 -1.0000e+00
        6  1    1    2  501    0 -2.0390611699e+01 -1.0249941562e+02 +7.0940159535e+01 2.1420413974e+02 1.7300000000e+02 0.0000e+00 -1.0000e+00
       -6  1    1    2    0  504 +7.4799295492e+01 +1.4017259555e+01 -1.0978366358e+02 2.1857005962e+02 1.7300000000e+02 0.0000e+00 -1.0000e+00
       21  1    1    2  504  503 -1.2153852252e+01 +2.4753343759e+01 -8.8478127356e+01 9.2675903946e+01 0.0000000000e+00 0.0000e+00 -1.0000e+00
       21  1    1    2  505  502 -4.2254831541e+01 +6.3728812310e+01 -1.3624515006e+02 1.5623563365e+02 0.0000000000e+00 0.0000e+00 1.0000e+00
<mgrwt>
<rscale>  4 0.19238117E+03</rscale>
<asrwt>0</asrwt>
<pdfrwt beam="1">  1       21 0.32162997E-01 0.19238117E+03</pdfrwt>
<pdfrwt beam="2">  1       21 0.72711732E-01 0.19238117E+03</pdfrwt>
<totfact> 0.15844262E+04</totfact>
</mgrwt>
</event>
<event>
 6      1 +2.5168241e+02 2.38108300e+02 7.54677100e-03 1.03924000e-01
       21 -1    0    0  501  502 +0.0000000000e+00 +0.0000000000e+00 +1.9106024828e+03 1.9106024828e+03 0.0000000000e+00 0.0000e+00 1.0000e+00
       21 -1    0    0  504  503 -0.0000000000e+00 -0.0000000000e+00 -1.2324779140e+02 1.2324779140e+02 0.0000000000e+00 0.0000e+00 1.0000e+00
        6  1    1    2  501    0 +2.0956326865e+02 -5.5966820443e+01 +1.2885457050e+03 1.3180774190e+03 1.7300000000e+02 0.0000e+00 1.0000e+00
       -6  1    1    2    0  505 -1.5090078277e+02 -5.8428149437e+01 +4.1790365972e+01 2.4054174186e+02 1.7300000000e+02 0.0000e+00 1.0000e+00
       21  1    1    2  504  502 -1.4779987148e+01 +1.6291138506e+01 +9.9835592784e+01 1.0223010711e+02 0.0000000000e+00 0.0000e+00 1.0000e+00
       21  1    1    2  505  503 -4.3882498735e+01 +9.8103831373e+01 +3.5718302766e+02 3.7300100626e+02 0.0000000000e+00 0.0000e+00 1.0000e+00
<mgrwt>
<rscale>  4 0.23810829E+03</rscale>
<asrwt>0</asrwt>
<pdfrwt beam="1">  1       21 0.29393882E+00 0.23810829E+03</pdfrwt>
<pdfrwt beam="2">  1       21 0.18961200E-01 0.23810829E+03</pdfrwt>
<totfact> 0.89195529E+02</totfact>
</mgrwt>
</event>
<event>
 6      1 +2.5168241e+02 2.37369500e+02 7.54677100e-03 1.17132900e-01
       21 -1    0    0  505  502 +0.0000000000e+00 +0.0000000000e+00 +8.6880137805e+02 8.6880137805e+02 0.0000000000e+00 0.0000e+00 1.0000e+00
       21 -1    0    0  504  503 -0.0000000000e+00 -0.0000000000e+00 -5.7588618600e+02 5.7588618600e+02 0.0000000000e+00 0.0000e+00 1.0000e+00
        6  1    1    2  501    0 +1.8703120965e+02 +2.5510654253e+01 -6.2647465056e+01 2.6360040163e+02 1.7300000000e+02 0.0000e+00 -1.0000e+00
       -6  1    1    2    0  502 -1.3070862666e+02 -5.5863560116e+01 -2.1999688922e+02 3.1389984661e+02 1.7300000000e+02 0.0000e+00 1.0000e+00
       21  1    1    2  504  501 -1.2872298221e+01 -2.6577604071e+01 -1.4251897260e+02 1.4554629041e+02 0.0000000000e+00 0.0000e+00 -1.0000e+00
       21  1    1    2  505  503 -4.3450284763e+01 +5.6930509934e+01 +7.1807851892e+02 7.2164102540e+02 0.0000000000e+00 0.0000e+00 1.0000e+00
<mgrwt>
<rscale>  4 0.23736953E+03</rscale>
<asrwt>0</asrwt>
<pdfrwt beam="1">  1       21 0.13366175E+00 0.23736953E+03</pdfrwt>
<pdfrwt beam="2">  1       21 0.88597875E-01 0.23736953E+03</pdfrwt>
<totfact> 0.41871397E+02</totfact>
</mgrwt>
</event>
<event>
 6      1 +2.5168241e+02 2.60101000e+02 7.54677100e-03 1.16519500e-01
       21 -1    0    0  505  502 +0.0000000000e+00 +0.0000000000e+00 +3.7632002827e+02 3.7632002827e+02 0.0000000000e+00 0.0000e+00 1.0000e+00
       21 -1    0    0  504  503 -0.0000000000e+00 -0.0000000000e+00 -2.7941578510e+02 2.7941578510e+02 0.0000000000e+00 0.0000e+00 1.0000e+00
        6  1    1    2  501    0 +1.6893597652e+02 +1.1478235775e+02 -9.5447749989e+01 2.8417182618e+02 1.7300000000e+02 0.0000e+00 1.0000e+00
       -6  1    1    2    0  503 -1.6711067236e+02 -5.1220635803e+01 +1.7459480478e+02 3.0159886639e+02 1.7300000000e+02 0.0000e+00 1.0000e+00
       21  1    1    2  504  502 -1.6047886188e+00 -4.3185630137e+01 +4.3099826875e-01 4.3217586193e+01 0.0000000000e+00 0.0000e+00 1.0000e+00
       21  1    1    2  505  501 -2.2051554918e-01 -2.0376091812e+01 +1.7326190108e+01 2.6747534621e+01 0.0000000000e+00 0.0000e+00 1.0000e+00
<mgrwt>
<rscale>  4 0.26010099E+03</rscale>
<asrwt>0</asrwt>
<pdfrwt beam="1">  1       21 0.57895389E-01 0.26010099E+03</pdfrwt>
<pdfrwt beam="2">  1       21 0.42987044E-01 0.26010099E+03</pdfrwt>
<totfact> 0.14004703E+04</totfact>
</mgrwt>
</event>
<event>
 6      1 +2.5168241e+02 1.92600600e+02 7.54677100e-03 1.14278100e-01
       21 -1    0    0  504  502 +0.0000000000e+00 +0.0000000000e+00 +6.7992121441e+02 6.7992121441e+02 0.0000000000e+00 0.0000e+00 -1.0000e+00
       21 -1    0    0  502  503 -0.0000000000e+00 -0.0000000000e+00 -1.8527166393e+02 1.8527166393e+02 0.0000000000e+00 0.0000e+00 1.0000e+00
        6  1    1    2  501    0 -1.9647055526e+01 -6.5165939203e+01 -3.7189667602e+01 1.8959081676e+02 1.7300000000e+02 0.0000e+00 1.0000e+00
       -6  1    1    2    0  505 +4.4670328977e+01 +1.1850804361e+02 +1.3232821549e+02 2.5195108911e+02 1.7300000000e+02 0.0000e+00 1.0000e+00
       21  1    1    2  504  501 -4.1327738331e+00 +4.1683804830e+01 +9.1363547563e+01 1.0050829432e+02 0.0000000000e+00 0.0000e+00 -1.0000e+00
       21  1    1    2  505  503 -2.0890499618e+01 -9.5025909233e+01 +3.0814745503e+02 3.2314267815e+02 0.0000000000e+00 0.0000e+00 -1.0000e+00
<mgrwt>
<rscale>  4 0.19260056E+03</rscale>
<asrwt>0</asrwt>
<pdfrwt beam="1">  1       21 0.10460326E+00 0.19260056E+03</pdfrwt>
<pdfrwt beam="2">  1       21 0.28503333E-01 0.19260056E+03</pdfrwt>
<totfact> 0.86789958E+03</totfact>
</mgrwt>
</event>
<event>
 6      1 +2.5168241e+02 1.96573400e+02 7.54677100e-03 1.12989000e-01
       21 -1    0    0  503  502 +0.0000000000e+00 +0.0000000000e+00 +1.4474710057e+02 1.4474710057e+02 0.0000000000e+00 0.0000e+00 1.0000e+00
       21 -1    0    0  501  503 -0.0000000000e+00 -0.0000000000e+00 -9.3830015814e+02 9.3830015814e+02 0.0000000000e+00 0.0000e+00 1.0000e+00
        6  1    1    2  501    0 -1.5351627078e+02 +6.6298707021e+01 -1.1964751531e+02 2.6871414527e+02 1.7300000000e+02 0.0000e+00 1.0000e+00
       -6  1    1    2    0  505 +2.5574332728e+01 -4.1898127620e+01 -7.2499248790e+01 1.9389337448e+02 1.7300000000e+02 0.0000e+00 1.0000e+00
       21  1    1    2  504  502 +8.0713323266e+01 -3.7956751112e+01 -2.4634435255e+02 2.6199407540e+02 0.0000000000e+00 0.0000e+00 -1.0000e+00
       21  1    1    2  505  504 +4.7228614788e+01 +1.3556171712e+01 -3.5506194091e+02 3.5844566357e+02 0.0000000000e+00 0.0000e+00 1.0000e+00
<mgrwt>
<rscale>  4 0.19657343E+03</rscale>
<asrwt>0</asrwt>
<pdfrwt beam="1">  1       21 0.22268786E-01 0.19657343E+03</pdfrwt>
<pdfrwt beam="2">  1       21 0.14435386E+00 0.19657343E+03</pdfrwt>
<totfact> 0.62154171E+03</totfact>
</mgrwt>
</event>
<event>
 6      1 +2.5168241e+02 2.07613100e+02 7.54677100e-03 1.11910500e-01
       21 -1    0    0  501  502 +0.0000000000e+00 +0.0000000000e+00 +1.0316493836e+03 1.0316493836e+03 0.0000000000e+00 0.0000e+00 1.0000e+00
       21 -1    0    0  505  503 -0.0000000000e+00 -0.0000000000e+00 -1.2977471940e+02 1.2977471940e+02 0.0000000000e+00 0.0000e+00 1.0000e+00
        6  1    1    2  501    0 +5.9306622887e+01 -4.2212404280e+01 +3.7061912935e+02 4.1543555653e+02 1.7300000000e+02 0.0000e+00 1.0000e+00
       -6  1    1    2    0  504 -1.0070157148e+02 +1.2328027532e+02 +5.8488156356e+02 6.3036043354e+02 1.7300000000e+02 0.0000e+00 1.0000e+00
       21  1    1    2  504  503 -6.7612224752e+00 -2.0378573092e+01 -2.5193743008e+01 3.3101737982e+01 0.0000000000e+00 0.0000e+00 1.0000e+00
       21  1    1    2  505  502 +4.8156171073e+01 -6.0689297950e+01 -2.8432285673e+01 8.2526374976e+01 0.0000000000e+00 0.0000e+00 1.0000e+00
<mgrwt>
<rscale>  4 0.20761314E+03</rscale>
<asrwt>0</asrwt>
<pdfrwt beam="1">  1       21 0.15871528E+00 0.20761314E+03</pdfrwt>
<pdfrwt beam="2">  1       21 0.19965342E-01 0.20761314E+03</pdfrwt>
<totfact> 0.58837795E+03</totfact>
</mgrwt>
</event>
<event>
 6      1 +2.5168241e+02 2.77692400e+02 7.54677100e-03 1.03924000e-01
       21 -1    0    0  504  502 +0.0000000000e+00 +0.0000000000e+00 +7.2036569412e+02 7.2036569412e+02 0.0000000000e+00 0.0000e+00 1.0000e+00
       21 -1    0    0  501  503 -0.0000000000e+00 -0.0000000000e+00 -1.0841286344e+03 1.0841286344e+03 0.0000000000e+00 0.0000e+00 -1.0000e+00
        6  1    1    2  501    0 -2.5614414192e+02 -2.5510011318e+02 -5.8550209330e+02 7.0952631413e+02 1.7300000000e+02 0.0000e+00 -1.0000e+00
       -6  1    1    2    0  505 +5.9672033917e+01 +1.3651111272e+02 -3.7770242336e+02 4.4134358060e+02 1.7300000000e+02 0.0000e+00 -1.0000e+00
       21  1    1    2  504  503 +4.8486830799e+01 -2.4813912598e+01 +1.2128532666e+02 1.3295425334e+02 0.0000000000e+00 0.0000e+00 -1.0000e+00
       21  1    1    2  505  502 +1.4798527720e+02 +1.4340291306e+02 +4.7815624968e+02 5.2067018049e+02 0.0000000000e+00 0.0000e+00 1.0000e+00
<mgrwt>
<rscale>  4 0.27769241E+03</rscale>
<asrwt>0</asrwt>
<pdfrwt beam="1">  1       21 0.11082549E+00 0.27769241E+03</pdfrwt>
<pdfrwt beam="2">  1       21 0.16678902E+00 0.27769241E+03</pdfrwt>
<totfact> 0.13098697E+02</totfact>
</mgrwt>
</event>
<event>
 6      1 +2.5168241e+02 2.15097600e+02 7.54677100e-03 1.17389200e-01
       21 -1    0    0  504  502 +0.0000000000e+00 +0.0000000000e+00 +1.8199314969e+03 1.8199314969e+03 0.0000000000e+00 0.0000e+00 1.0000e+00
       21 -1    0    0  501  503 -0.0000000000e+00 -0.0000000000e+00 -7.1533321189e+01 7.1533321189e+01 0.0000000000e+00 0.0000e+00 1.0000e+00
        6  1    1    2  501    0 -5.9923881659e+01 +1.0892096490e+02 +1.5785230575e+02 2.6514335484e+02 1.7300000000e+02 0.0000e+00 1.0000e+00
       -6  1    1    2    0  505 +3.4819141977e+00 -1.6587207956e+02 +1.3374424498e+03 1.3587519925e+03 1.7300000000e+02 0.0000e+00 1.0000e+00
       21  1    1    2  504  503 +4.4511979733e+01 +3.9957797011e+01 +1.3504729683e+02 1.4770143623e+02 0.0000000000e+00 0.0000e+00 1.0000e+00
       21  1    1    2  505  502 +1.1929987728e+01 +1.6993317658e+01 +1.1805612334e+02 1.1986803457e+02 0.0000000000e+00 0.0000e+00 1.0000e+00
<mgrwt>
<rscale>  4 0.21509761E+03</rscale>
<asrwt>0</asrwt>
<pdfrwt beam="1">  1       21 0.27998943E+00 0.21509761E+03</pdfrwt>
<pdfrwt beam="2">  1       21 0.11005128E-01 0.21509761E+03</pdfrwt>
<totfact> 0.29720342E+03</totfact>
</mgrwt>
</event>
<event>
 6      1 +2.5168241e+02 1.94365600e+02 7.54677100e-03 1.12068800e-01
       21 -1    0    0  504  502 +0.0000000000e+00 +0.0000000000e+00 +1.0933622666e+02 1.0933622666e+02 0.0000000000e+00 0.0000e+00 1.0000e+00
       21 -1    0    0  502  503 -0.0000000000e+00 -0.0000000000e+00 -2.0189063253e+03 2.0189063253e+03 0.0000000000e+00 0.0000e+00 -1.0000e+00
        6  1    1    2  501    0 -9.1589140604e+00 -6.6427053887e+01 -1.9441178067e+02 2.6874035733e+02 1.7300000000e+02 0.0000e+00 1.0000e+00
       -6  1    1    2    0  505 -2.8824325956e+01 +1.0067467137e+02 -7.5355473771e+01 2.1580935719e+02 1.7300000000e+02 0.0000e+00 1.0000e+00
       21  1    1    2  504  501 +6.8056390000e+01 -4.1923079498e+01 -1.3085792546e+03 1.3110182617e+03 0.0000000000e+00 0.0000e+00 -1.0000e+00
       21  1    1    2  505  503 -3.0073149983e+01 +7.6754620127e+00 -3.3122358957e+02 3.3267457576e+02 0.0000000000e+00 0.0000e+00 -1.0000e+00
<mgrwt>
<rscale>  4 0.19436561E+03</rscale>
<asrwt>0</asrwt>
<pdfrwt beam="1">  1       21 0.16820959E-01 0.19436561E+03</pdfrwt>
<pdfrwt beam="2">  1       21 0.31060095E+00 0.19436561E+03</pdfrwt>
<totfact> 0.94116463E+02</totfact>
</mgrwt>
</event>
<event>
 6      1 +2.5168241e+02 2.72618700e+02 7.54677100e-03 1.03924000e-01
       21 -1    0    0  501  502 +0.0000000000e+00 +0.0000000000e+00 +2.7450552495e+02 2.7450552495e+02 0.0000000000e+00 0.0000e+00 -1.0000e+00
       21 -1    0    0  502  503 -0.0000000000e+00 -0.0000000000e+00 -4.6564509792e+02 4.6564509792e+02 0.0000000000e+00 0.0000e+00 -1.0000e+00
        6  1    1    2  501    0 +1.7291693177e+02 +1.7234561962e+02 +3.1482021706e+01 3.0087106139e+02 1.7300000000e+02 0.0000e+00 -1.0000e+00
       -6  1    1    2    0  505 -8.2199988107e+01 -1.8491170452e+02 -2.1981430427e+02 3.4524846832e+02 1.7300000000e+02 0.0000e+00 -1.0000e+00
       21  1    1    2  504  503 -1.9801861374e+01 +1.1610510051e+01 -2.6699363086e+00 2.3109440006e+01 0.0000000000e+00 0.0000e+00 -1.0000e+00
       21  1    1    2  505  504 -7.0915082286e+01 +9.5557485205e-01 -1.3735410096e-01 7.0921653146e+01 0.0000000000e+00 0.0000e+00 -1.0000e+00
<mgrwt>
<rscale>  4 0.27261868E+03</rscale>
<asrwt>0</asrwt>
<pdfrwt beam="1">  1       21 0.42231619E-01 0.27261868E+03</pdfrwt>
<pdfrwt beam="2">  1       21 0.71637708E-01 0.27261868E+03</pdfrwt>
<totfact> 0.90497356E+03</totfact>
</mgrwt>
</event>
<event>
 6      1 +2.5168241e+02 2.31339600e+02 7.54677100e-03 1.11910500e-01
       21 -1    0    0  501  502 +0.0000000000e+00 +0.0000000000e+00 +2.7620472571e+02 2.7620472571e+02 0.0000000000e+00 0.0000e+00 1.0000e+00
       21 -1    0    0  504  503 -0.0000000000e+00 -0.0000000000e+00 -8.2804437916e+02 8.2804437916e+02 0.0000000000e+00 0.0000e+00 1.0000e+00
        6  1    1    2  501    0 -3.6343357866e+01 -1.1193888003e+02 +4.7576307947e+01 2.1457785907e+02 1.7300000000e+02 0.0000e+00 1.0000e+00
       -6  1    1    2    0  503 +2.3880165437e+02 +1.1933667860e+02 -9.7145069694e+01 3.3261635191e+02 1.7300000000e+02 0.0000e+00 1.0000e+00
       21  1    1    2  504  505 -3.0822309516e+01 +1.8700148731e+01 -1.3719157459e+01 3.8573638769e+01 0.0000000000e+00 0.0000e+00 1.0000e+00
       21  1    1    2  505  502 -1.7163598699e+02 -2.6097947298e+01 -4.8855173424e+02 5.1848125513e+02 0.0000000000e+00 0.0000e+00 1.0000e+00
<mgrwt>
<rscale>  4 0.23133963E+03</rscale>
<asrwt>0</asrwt>
<pdfrwt beam="1">  1       21 0.42493035E-01 0.23133963E+03</pdfrwt>
<pdfrwt beam="2">  1       21 0.12739144E+00 0.23133963E+03</pdfrwt>
<totfact> 0.23449061E+03</totfact>
</mgrwt>
</event>
<event>
 6      1 +2.5168241e+02 2.61838600e+02 7.54677100e-03 1.08009500e-01
       21 -1    0    0  503  502 +0.0000000000e+00 +0.0000000000e+00 +9.2995105677e+02 9.2995105677e+02 0.0000000000e+00 0.0000e+00 1.0000e+00
       21 -1    0    0  504  503 -0.0000000000e+00 -0.0000000000e+00 -4.5958489067e+02 4.5958489067e+02 0.0000000000e+00 0.0000e+00 1.0000e+00
        6  1    1    2  501    0 +7.3675522626e+01 -4.9546092574e+01 +6.4836982311e+02 6.7690126713e+02 1.7300000000e+02 0.0000e+00 1.0000e+00
       -6  1    1    2    0  505 -6.2140237682e+01 -1.4480094686e+02 -5.2440350268e+01 2.3980765978e+02 1.7300000000e+02 0.0000e+00 1.0000e+00
       21  1    1    2  504  501 -6.3483111205e+01 -1.2680909885e+01 +1.2675939816e+02 1.4233360779e+02 0.0000000000e+00 0.0000e+00 -1.0000e+00
       21  1    1    2  505  502 +5.1947826261e+01 +2.0702794932e+02 -2.5232270491e+02 3.3049341274e+02 0.0000000000e+00 0.0000e+00 1.0000e+00
<mgrwt>
<rscale>  4 0.23983874E+03</rscale>
<asrwt>0</asrwt>
<pdfrwt beam="1">  1       21 0.14306939E+00 0.26183864E+03</pdfrwt>
<pdfrwt beam="2">  1       21 0.70705368E-01 0.26183864E+03</pdfrwt>
<totfact> 0.57350065E+02</totfact>
</mgrwt>
</event>
<event>
 6      1 +2.5168241e+02 3.10536000e+02 7.54677100e-03 1.03924000e-01
       21 -1    0    0  501  502 +0.0000000000e+00 +0.0000000000e+00 +4.7670699628e+02 4.7670699628e+02 0.0000000000e+00 0.0000e+00 1.0000e+00
       21 -1    0    0  504  503 -0.0000000000e+00 -0.0000000000e+00 -1.2869029348e+03 1.2869029348e+03 0.0000000000e+00 0.0000e+00 -1.0000e+00
        6  1    1    2  501    0 +1.7378121101e+02 -2.4363569574e+02 +2.1868776550e+02 4.0903740699e+02 1.7300000000e+02 0.0000e+00 1.0000e+00
       -6  1    1    2    0  505 -1.1637091948e+02 +2.6691586695e+01 -1.0854187161e+03 1.1055846512e+03 1.7300000000e+02 0.0000e+00 -1.0000e+00
       21  1    1    2  504  502 -4.3952260928e+01 +3.4216793863e+01 +3.1701451588e+01 6.4090344482e+01 0.0000000000e+00 0.0000e+00 1.0000e+00
       21  1    1    2  505  503 -1.3458030599e+01 +1.8272731518e+02 +2.4833560457e+01 1.8489752845e+02 0.0000000000e+00 0.0000e+00 -1.0000e+00
<mgrwt>
<rscale>  4 0.28167068E+03</rscale>
<asrwt>0</asrwt>
<pdfrwt beam="1">  1       21 0.73339537E-01 0.31053600E+03</pdfrwt>
<pdfrwt beam="2">  1       21 0.19798507E+00 0.31053600E+03</pdfrwt>
<totfact> 0.20462343E+02</totfact>
</mgrwt>
</event>
<event>
 6      1 +2.5168241e+02 1.74010000e+02 7.54677100e-03 1.16820100e-01
       21 -1    0    0  504  502 +0.0000000000e+00 +0.0000000000e+00 +2.9891796830e+02 2.9891796830e+02 0.0000000000e+00 0.0000e+00 -1.0000e+00
       21 -1    0    0  505  503 -0.0000000000e+00 -0.0000000000e+00 -5.1427947847e+02 5.1427947847e+02 0.0000000000e+00 0.0000e+00 -1.0000e+00
        6  1    1    2  501    0 +1.1437502217e+02 +4.8300890458e+00 +2.0042970029e+01 2.0841232234e+02 1.7300000000e+02 0.0000e+00 -1.0000e+00
       -6  1    1    2    0  503 +5.1357795930e+00 -1.5775602383e+01 -3.6980291104e+02 4.0860548072e+02 1.7300000000e+02 0.0000e+00 -1.0000e+00
       21  1    1    2  504  501 -4.6023341344e+01 +1.0329163620e+01 +5.0837539612e+00 4.7441375653e+01 0.0000000000e+00 0.0000e+00 -1.0000e+00
       21  1    1    2  505  502 -7.3487460421e+01 +6.1634971768e-01 +1.2931467688e+02 1.4873826805e+02 0.0000000000e+00 0.0000e+00 -1.0000e+00
<mgrwt>
<rscale>  4 0.17401000E+03</rscale>
<asrwt>0</asrwt>
<pdfrwt beam="1">  1       21 0.45987380E-01 0.17401000E+03</pdfrwt>
<pdfrwt beam="2">  1       21 0.79119919E-01 0.17401000E+03</pdfrwt>
<totfact> 0.64827562E+03</totfact>
</mgrwt>
</event>
<event>
 6      1 +2.5168241e+02 3.33989000e+02 7.54677100e-03 1.16820100e-01
       21 -1    0    0  505  502 +0.0000000000e+00 +0.0000000000e+00 +2.2380442273e+03 2.2380442273e+03 0.0000000000e+00 0.0000e+00 1.0000e+00
       21 -1    0    0  504  503 -0.0000000000e+00 -0.0000000000e+00 -3.8116740183e+02 3.8116740183e+02 0.0000000000e+00 0.0000e+00 -1.0000e+00
        6  1    1    2  501    0 +2.0734317661e+02 +2.0883441617e+02 +1.8723984709e+03 1.9032624728e+03 1.7300000000e+02 0.0000e+00 1.0000e+00
       -6  1    1    2    0  503 -1.3868464511e+02 -2.1083796283e+02 -2.4145682334e+02 3.8976464039e+02 1.7300000000e+02 0.0000e+00 -1.0000e+00
       21  1    1    2  504  502 -5.0022936962e+01 -5.5558924963e+00 -3.7008872267e+01 6.2472544291e+01 0.0000000000e+00 0.0000e+00 1.0000e+00
       21  1    1    2  505  501 -1.8635594544e+01 +7.5594391527e+00 +2.6294405019e+02 2.6371197173e+02 0.0000000000e+00 0.0000e+00 -1.0000e+00
<mgrwt>
<rscale>  4 0.33398900E+03</rscale>
<asrwt>0</asrwt>
<pdfrwt beam="1">  1       21 0.34431449E+00 0.33398900E+03</pdfrwt>
<pdfrwt beam="2">  1       21 0.58641140E-01 0.33398900E+03</pdfrwt>
<totfact> 0.42451939E+01</totfact>
</mgrwt>
</event>
<event>
 6      1 +2.5168241e+02 1.88158500e+02 7.54677100e-03 1.12068800e-01
       21 -1    0    0  504  502 +0.0000000000e+00 +0.0000000000e+00 +1.1685216081e+03 1.1685216081e+03 0.0000000000e+00 0.0000e+00 -1.0000e+00
       21 -1    0    0  502  503 -0.0000000000e+00 -0.0000000000e+00 -2.9454463529e+02 2.9454463529e+02 0.0000000000e+00 0.0000e+00 1.0000e+00
        6  1    1    2  501    0 -5.5718129806e+00 +2.7553690982e+00 +3.4960328721e+02 3.9011549007e+02 1.7300000000e+02 0.0000e+00 1.0000e+00
       -6  1    1    2    0  505 -1.3003265059e+02 -4.0361628446e+01 +7.3876475364e+02 7.7086958202e+02 1.7300000000e+02 0.0000e+00 -1.0000e+00
       21  1    1    2  504  501 +1.1227612047e+02 -3.7261971121e+01 -1.8236761071e+02 2.1737600409e+02 0.0000000000e+00 0.0000e+00 1.0000e+00
       21  1    1    2  505  503 +2.3328343099e+01 +7.4868230468e+01 -3.2023457360e+01 8.4705167177e+01 0.0000000000e+00 0.0000e+00 1.0000e+00
<mgrwt>
<rscale>  4 0.18815852E+03</rscale>
<asrwt>0</asrwt>
<pdfrwt beam="1">  1       21 0.17977255E+00 0.18815852E+03</pdfrwt>
<pdfrwt beam="2">  1       21 0.45314560E-01 0.18815852E+03</pdfrwt>
<totfact> 0.85737727E+02</totfact>
</mgrwt>
</event>
<event>
 6      1 +2.5168241e+02 2.35274900e+02 7.54677100e-03 1.07240600e-01
       21 -1    0    0  505  502 +0.0000000000e+00 +0.0000000000e+00 +3.7508826192e+02 3.7508826192e+02 0.0000000000e+00 0.0000e+00 1.0000e+00
       21 -1    0    0  504  503 -0.0000000000e+00 -0.0000000000e+00 -5.7675601271e+02 5.7675601271e+02 0.0000000000e+00 0.0000e+00 1.0000e+00
        6  1    1    2  501    0 -1.9735429541e+00 +4.6859046696e+01 -1.5536876601e+02 2.3720901876e+02 1.7300000000e+02 0.0000e+00 1.0000e+00
       -6  1    1    2    0  502 -1.1684999714e+02 +6.2859241220e+01 +1.7734055158e+02 2.8104070394e+02 1.7300000000e+02 0.0000e+00 1.0000e+00
       21  1    1    2  504  501 +5.5970541337e+01 +8.5373672924e+01 +3.1021615816e+01 1.0669445240e+02 0.0000000000e+00 0.0000e+00 1.0000e+00
       21  1    1    2  505  503 +6.2852998758e+01 -1.9509196084e+02 -2.5466115218e+02 3.2690009952e+02 0.0000000000e+00 0.0000e+00 1.0000e+00
<mgrwt>
<rscale>  4 0.22083898E+03</rscale>
<asrwt>0</asrwt>
<pdfrwt beam="1">  1       21 0.57705886E-01 0.23527486E+03</pdfrwt>
<pdfrwt beam="2">  1       21 0.88731695E-01 0.23527486E+03</pdfrwt>
<totfact> 0.29560169E+03</totfact>
</mgrwt>
</event>
<event>
 6      1 +2.5168241e+02 1.78849300e+02 7.54677100e-03 1.16820100e-01
       21 -1    0    0  505  502 +0.0000000000e+00 +0.0000000000e+00 +9.8955453888e+02 9.8955453888e+02 0.0000000000e+00 0.0000e+00 1.0000e+00
       21 -1    0    0  501  503 -0.0000000000e+00 -0.0000000000e+00 -7.9172613389e+02 7.9172613389e+02 0.0000000000e+00 0.0000e+00 1.0000e+00
        6  1    1    2  501    0 +2.2284597741e+01 -7.1049210056e+01 +9.6756912715e+01 2.1174393428e+02 1.7300000000e+02 0.0000e+00 -1.0000e+00
       -6  1    1    2    0  502 +3.7207846157e+01 +1.7182516456e+01 +2.1719158851e+02 2.8067926323e+02 1.7300000000e+02 0.0000e+00 1.0000e+00
       21  1    1    2  504  503 -6.4473652385e+01 +3.2841385822e+01 -7.0042540292e+02 7.0415279132e+02 0.0000000000e+00 0.0000e+00 1.0000e+00
       21  1    1    2  505  504 +4.9812084875e+00 +2.1025307778e+01 +5.8430530668e+02 5.8470468394e+02 0.0000000000e+00 0.0000e+00 1.0000e+00
<mgrwt>
<rscale>  4 0.17884931E+03</rscale>
<asrwt>0</asrwt>
<pdfrwt beam="1">  1       21 0.15223916E+00 0.17884931E+03</pdfrwt>
<pdfrwt beam="2">  1       21 0.12180402E+00 0.17884931E+03</pdfrwt>
<totfact> 0.14910032E+02</totfact>
</mgrwt>
</event>
<event>
 6      1 +2.5168241e+02 5.14238600e+02 7.54677100e-03 1.09588500e-01
       21 -1    0    0  505  502 +0.0000000000e+00 +0.0000000000e+00 +4.7866956809e+02 4.7866956809e+02 0.0000000000e+00 0.0000e+00 -1.0000e+00
       21 -1    0    0  502  503 -0.0000000000e+00 -0.0000000000e+00 -9.9180752224e+02 9.9180752224e+02 0.0000000000e+00 0.0000e+00 -1.0000e+00
        6  1    1    2  501    0 +2.5170105855e+02 +3.1153824625e+02 -4.0956422005e+02 5.9839899072e+02 1.7300000000e+02 0.0000e+00 -1.0000e+00
       -6  1    1    2    0  504 -3.8626130547e+02 -3.4935971962e+02 +1.4669466913e+02 5.6806543263e+02 1.7300000000e+02 0.0000e+00 -1.0000e+00
       21  1    1    2  504  503 +8.8621188713e+01 -1.2828286480e+01 -7.8308388862e+01 1.1895580603e+02 0.0000000000e+00 0.0000e+00 1.0000e+00
       21  1    1    2  505  501 +4.5939058210e+01 +5.0649759847e+01 -1.7196001437e+02 1.8505686095e+02 0.0000000000e+00 0.0000e+00 -1.0000e+00
<mgrwt>
<rscale>  4 0.51423864E+03</rscale>
<asrwt>0</asrwt>
<pdfrwt beam="1">  1       21 0.73641472E-01 0.51423864E+03</pdfrwt>
<pdfrwt beam="2">  1       21 0.15258577E+00 0.51423864E+03</pdfrwt>
<totfact> 0.38087449E+02</totfact>
</mgrwt>
</event>
<event>
 6      1 +2.5168241e+02 2.11722000e+02 7.54677100e-03 1.16820100e-01
       21 -1    0    0  505  502 +0.0000000000e+00 +0.0000000000e+00 +9.1745682023e+01 9.1745682023e+01 0.0000000000e+00 0.0000e+00 -1.0000e+00
       21 -1    0    0  501  503 -0.0000000000e+00 -0.0000000000e+00 -1.2522721566e+03 1.2522721566e+03 0.0000000000e+00 0.0000e+00 -1.0000e+00
        6  1    1    2  501    0 -1.8507438923e+01 +1.4967023703e+02 -6.4061487962e+02 6.8048521596e+02 1.7300000000e+02 0.0000e+00 -1.0000e+00
       -6  1    1    2    0  502 -1.2306355663e+01 -9.5213930706e+01 -4.8702880358e+02 5.2568354978e+02 1.7300000000e+02 0.0000e+00 -1.0000e+00
       21  1    1    2  504  503 +3.0135749016e+01 -3.4211183360e+01 -7.6897500688e+01 8.9396834662e+01 0.0000000000e+00 0.0000e+00 -1.0000e+00
       21  1    1    2  505  504 +6.7804557030e-01 -2.0245122963e+01 +4.4014709331e+01 4.8452238205e+01 0.0000000000e+00 0.0000e+00 -1.0000e+00
<mgrwt>
<rscale>  4 0.21172202E+03</rscale>
<asrwt>0</asrwt>
<pdfrwt beam="1">  1       21 0.14114721E-01 0.21172202E+03</pdfrwt>
<pdfrwt beam="2">  1       21 0.19265725E+00 0.21172202E+03</pdfrwt>
<totfact> 0.64574955E+03</totfact>
</mgrwt>
</event>
<event>
 6      1 +2.5168241e+02 1.96302700e+02 7.54677100e-03 1.07279400e-01
       21 -1    0    0  504  502 +0.0000000000e+00 +0.0000000000e+00 +7.3003079526e+02 7.3003079526e+02 0.0000000000e+00 0.0000e+00 -1.0000e+00
       21 -1    0    0  505  503 -0.0000000000e+00 -0.0000000000e+00 -2.1599638841e+02 2.1599638841e+02 0.0000000000e+00 0.0000e+00 -1.0000e+00
        6  1    1    2  501    0 -1.5775169106e+02 -3.7505045660e-01 +2.3004118311e+02 3.2822809542e+02 1.7300000000e+02 0.0000e+00 -1.0000e+00
       -6  1    1    2    0  503 +8.5130981593e+01 +1.5492005830e+01 -8.9256088608e+01 2.1303271022e+02 1.7300000000e+02 0.0000e+00 -1.0000e+00
       21  1    1    2  504  501 +9.1827704360e+01 -3.4526780705e+01 +3.6229814619e+02 3.7534567082e+02 0.0000000000e+00 0.0000e+00 -1.0000e+00
       21  1    1    2  505  502 -1.9206994896e+01 +1.9409825332e+01 +1.0951166154e+01 2.9420707206e+01 0.0000000000e+00 0.0000e+00 1.0000e+00
<mgrwt>
<rscale>  4 0.19630275E+03</rscale>
<asrwt>0</asrwt>
<pdfrwt beam="1">  1       21 0.11231243E+00 0.19630275E+03</pdfrwt>
<pdfrwt beam="2">  1       21 0.33230214E-01 0.19630275E+03</pdfrwt>
<totfact> 0.53995583E+03</totfact>
</mgrwt>
</event>
<event>
 6      1 +2.5168241e+02 2.36493100e+02 7.54677100e-03 1.14278100e-01
       21 -1    0    0  501  502 +0.0000000000e+00 +0.0000000000e+00 +7.0126026826e+02 7.0126026826e+02 0.0000000000e+00 0.0000e+00 -1.0000e+00
       21 -1    0    0  504  503 -0.0000000000e+00 -0.0000000000e+00 -1.5100387182e+03 1.5100387182e+03 0.0000000000e+00 0.0000e+00 -1.0000e+00
        6  1    1    2  501    0 -3.6637694145e+01 +1.1302034083e+02 -5.8633884586e+02 6.2276653751e+02 1.7300000000e+02 0.0000e+00 -1.0000e+00
       -6  1    1    2    0  505 +2.6721332442e+01 -2.0902387052e+02 -8.8032744481e+02 9.2158039158e+02 1.7300000000e+02 0.0000e+00 -1.0000e+00
       21  1    1    2  504  502 +1.7841041122e+01 +5.2288892552e+01 +4.9637852400e+02 4.9944376072e+02 0.0000000000e+00 0.0000e+00 -1.0000e+00
       21  1    1    2  505  503 -7.9246794187e+00 +4.3714637139e+01 +1.6150931676e+02 1.6750829664e+02 0.0000000000e+00 0.0000e+00 -1.0000e+00
<mgrwt>
<rscale>  4 0.23649306E+03</rscale>
<asrwt>0</asrwt>
<pdfrwt beam="1">  1       21 0.10788620E+00 0.23649306E+03</pdfrwt>
<pdfrwt beam="2">  1       21 0.23231365E+00 0.23649306E+03</pdfrwt>
<totfact> 0.54401869E+01</totfact>
</mgrwt>
</event>
<event>
 6      1 +2.5168241e+02 1.81324700e+02 7.54677100e-03 1.11910500e-01
       21 -1    0    0  501  502 +0.0000000000e+00 +0.0000000000e+00 +8.4287691075e+01 8.4287691075e+01 0.0000000000e+00 0.0000e+00 1.0000e+00
       21 -1    0    0  505  503 -0.0000000000e+00 -0.0000000000e+00 -7.3317620108e+02 7.3317620108e+02 0.0000000000e+00 0.0000e+00 1.0000e+00
        6  1    1    2  501    0 +3.6835715117e+01 +4.2227301299e+01 -9.5238535116e+01 2.0527881882e+02 1.7300000000e+02 0.0000e+00 1.0000e+00
       -6  1    1    2    0  504 -6.3126798701e+01 -3.9049827633e+00 -4.2650007076e+02 4.6457674497e+02 1.7300000000e+02 0.0000e+00 1.0000e+00
       21  1    1    2  504  503 -1.8912869843e+01 -1.4787117680e+01 -4.0103543414e+01 4.6740236300e+01 0.0000000000e+00 0.0000e+00 1.0000e+00
       21  1    1    2  505  502 +4.5203953427e+01 -2.3535200856e+01 -8.7046360711e+01 1.0086809207e+02 0.0000000000e+00 0.0000e+00 1.0000e+00
<mgrwt>
<rscale>  4 0.18132466E+03</rscale>
<asrwt>0</asrwt>
<pdfrwt beam="1">  1       21 0.12967337E-01 0.18132466E+03</pdfrwt>
<pdfrwt beam="2">  1       21 0.11279634E+00 0.18132466E+03</pdfrwt>
<totfact> 0.31582210E+04</totfact>
</mgrwt>
</event>
<event>
 6      1 +2.5168241e+02 2.81387500e+02 7.54677100e-03 1.11471900e-01
       21 -1    0    0  503  502 +0.0000000000e+00 +0.0000000000e+00 +2.7002767995e+02 2.7002767995e+02 0.0000000000e+00 0.0000e+00 1.0000e+00
       21 -1    0    0  501  503 -0.0000000000e+00 -0.0000000000e+00 -6.3775225548e+02 6.3775225548e+02 0.0000000000e+00 0.0000e+00 1.0000e+00
        6  1    1    2  501    0 -2.5092048254e+00 +1.8237008065e+02 -1.8051103815e+02 3.0948081898e+02 1.7300000000e+02 0.0000e+00 1.0000e+00
       -6  1    1    2    0  505 +2.4063081930e+01 -2.6776678521e+02 -2.6035674349e+02 4.1230173060e+02 1.7300000000e+02 0.0000e+00 1.0000e+00
       21  1    1    2  504  502 -4.1207139656e+01 -2.6515287422e+01 +5.0062244661e+01 7.0052245975e+01 0.0000000000e+00 0.0000e+00 -1.0000e+00
       21  1    1    2  505  504 +1.9653262551e+01 +1.1191199198e+02 +2.3080961449e+01 1.1594513987e+02 0.0000000000e+00 0.0000e+00 1.0000e+00
<mgrwt>
<rscale>  4 0.28138748E+03</rscale>
<asrwt>0</asrwt>
<pdfrwt beam="1">  1       21 0.41542720E-01 0.28138748E+03</pdfrwt>
<pdfrwt beam="2">  1       21 0.98115732E-01 0.28138748E+03</pdfrwt>
<totfact> 0.45110888E+03</totfact>
</mgrwt>
</event>
<event>
 6      1 +2.5168241e+02 2.45889600e+02 7.54677100e-03 1.07240600e-01
       21 -1    0    0  505  502 +0.0000000000e+00 +0.0000000000e+00 +6.9942217602e+02 6.9942217602e+02 0.0000000000e+00 0.0000e+00 1.0000e+00
       21 -1    0    0  504  503 -0.0000000000e+00 -0.0000000000e+00 -1.2523975167e+03 1.2523975167e+03 0.0000000000e+00 0.0000e+00 1.0000e+00
        6  1    1    2  501    0 +8.1594676835e+01 +1.7705892414e+02 +5.6100205533e+02 6.1859506948e+02 1.7300000000e+02 0.0000e+00 1.0000e+00
       -6  1    1    2    0  502 -3.8431410482e+01 -9.3929103377e+01 -8.1478655973e+00 2.0073623860e+02 1.7300000000e+02 0.0000e+00 1.0000e+00
       21  1    1    2  504  501 -5.4874140645e+01 -5.9738086188e+01 -1.1186433886e+02 1.3817901636e+02 0.0000000000e+00 0.0000e+00 1.0000e+00
       21  1    1    2  505  503 +1.1710874292e+01 -2.3391734578e+01 -9.9396519151e+02 9.9430936824e+02 0.0000000000e+00 0.0000e+00 1.0000e+00
<mgrwt>
<rscale>  4 0.24588965E+03</rscale>
<asrwt>0</asrwt>
<pdfrwt beam="1">  1       21 0.10760341E+00 0.24588965E+03</pdfrwt>
<pdfrwt beam="2">  1       21 0.19267654E+00 0.24588965E+03</pdfrwt>
<totfact> 0.96372076E+01</totfact>
</mgrwt>
</event>
<event>
 6      1 +2.5168241e+02 1.78222800e+02 7.54677100e-03 1.17132900e-01
       21 -1    0    0  503  502 +0.0000000000e+00 +0.0000000000e+00 +2.1936018215e+02 2.1936018215e+02 0.0000000000e+00 0.0000e+00 -1.0000e+00
       21 -1    0    0  504  503 -0.0000000000e+00 -0.0000000000e+00 -2.7209608946e+02 2.7209608946e+02 0.0000000000e+00 0.0000e+00 -1.0000e+00
        6  1    1    2  501    0 -1.5792462152e+01 +7.0670133328e+01 -8.0459225641e+01 2.0407438986e+02 1.7300000000e+02 0.0000e+00 -1.0000e+00
       -6  1    1    2    0  505 -3.4972453134e+01 -1.2381290222e+01 -1.0622466122e+01 1.7725181413e+02 1.7300000000e+02 0.0000e+00 -1.0000e+00
       21  1    1    2  504  501 +3.0773316264e+01 -2.5449256311e+01 -1.6452899880e+01 4.3189808464e+01 0.0000000000e+00 0.0000e+00 -1.0000e+00
       21  1    1    2  505  502 +1.9991599022e+01 -3.2839586794e+01 +5.4798684334e+01 6.6940259164e+01 0.0000000000e+00 0.0000e+00 -1.0000e+00
<mgrwt>
<rscale>  4 0.17822284E+03</rscale>
<asrwt>0</asrwt>
<pdfrwt beam="1">  1       21 0.33747720E-01 0.17822284E+03</pdfrwt>
<pdfrwt beam="2">  1       21 0.41860937E-01 0.17822284E+03</pdfrwt>
<totfact> 0.46785681E+04</totfact>
</mgrwt>
</event>
<event>
 6      1 +2.5168241e+02 2.69174500e+02 7.54677100e-03 1.07279400e-01
       21 -1    0    0  504  502 +0.0000000000e+00 +0.0000000000e+00 +6.6328422642e+02 6.6328422642e+02 0.0000000000e+00 0.0000e+00 -1.0000e+00
       21 -1    0    0  505  503 -0.0000000000e+00 -0.0000000000e+00 -5.7189812274e+02 5.7189812274e+02 0.0000000000e+00 0.0000e+00 1.0000e+00
        6  1    1    2  501    0 -7.1748630950e+01 -1.8171064284e+02 -3.5665744671e+02 4.4192777470e+02 1.7300000000e+02 0.0000e+00 1.0000e+00
       -6  1    1    2    0  502 +1.2094448298e+02 +2.3654748323e+02 +1.2020220592e+02 3.3905729618e+02 1.7300000000e+02 0.0000e+00 -1.0000e+00
       21  1    1    2  504  503 +4.4541696421e+01 -5.3026796215e+01 +3.5088360032e+02 3.5765221209e+02 0.0000000000e+00 0.0000e+00 -1.0000e+00
       21  1    1    2  505  501 -9.3737548448e+01 -1.8100441756e+00 -2.3042255860e+01 9.6545066182e+01 0.0000000000e+00 0.0000e+00 -1.0000e+00
<mgrwt>
<rscale>  4 0.26917454E+03</rscale>
<asrwt>0</asrwt>
<pdfrwt beam="1">  1       21 0.10204373E+00 0.26917454E+03</pdfrwt>
<pdfrwt beam="2">  1       21 0.87984326E-01 0.26917454E+03</pdfrwt>
<totfact> 0.80917506E+02</totfact>
</mgrwt>
</event>
<event>
 6      1 +2.5168241e+02 1.93981400e+02 7.54677100e-03 1.07240600e-01
       21 -1    0    0  505  502 +0.0000000000e+00 +0.0000000000e+00 +8.7578515184e+01 8.7578515184e+01 0.0000000000e+00 0.0000e+00 1.0000e+00
       21 -1    0    0  504  503 -0.0000000000e+00 -0.0000000000e+00 -1.0637045452e+03 1.0637045452e+03 0.0000000000e+00 0.0000e+00 1.0000e+00
        6  1    1    2  501    0 -1.9605152047e+01 -4.7757361149e+01 -4.1627205225e+02 4.5373621082e+02 1.7300000000e+02 0.0000e+00 1.0000e+00
       -6  1    1    2    0  502 +1.0771665697e+02 +1.9973289823e+01 -1.0431574458e+02 2.2980988896e+02 1.7300000000e+02 0.0000e+00 1.0000e+00
       21  1    1    2  504  501 -2.5977078916e+01 +4.2583393197e+00 -4.7334433153e+01 5.4161708288e+01 0.0000000000e+00 0.0000e+00 1.0000e+00
       21  1    1    2  505  503 -6.2134426010e+01 +2.3525732006e+01 -4.0820380005e+02 4.1357525232e+02 0.0000000000e+00 0.0000e+00 1.0000e+00
<mgrwt>
<rscale>  4 0.19398140E+03</rscale>
<asrwt>0</asrwt>
<pdfrwt beam="1">  1       21 0.13473618E-01 0.19398140E+03</pdfrwt>
<pdfrwt beam="2">  1       21 0.16364685E+00 0.19398140E+03</pdfrwt>
<totfact> 0.11273506E+04</totfact>
</mgrwt>
</event>
<event>
 6      1 +2.5168241e+02 1.99063800e+02 7.54677100e-03 1.17389200e-01
       21 -1    0    0  504  502 +0.0000000000e+00 +0.0000000000e+00 +8.0333096958e+02 8.0333096958e+02 0.0000000000e+00 0.0000e+00 -1.0000e+00
       21 -1    0    0  501  503 -0.0000000000e+00 -0.0000000000e+00 -4.6579053029e+02 4.6579053029e+02 0.0000000000e+00 0.0000e+00 1.0000e+00
        6  1    1    2  501    0 +1.2687551727e+02 -3.6805097889e+01 +5.7743796428e+02 6.1710259658e+02 1.7300000000e+02 0.0000e+00 -1.0000e+00
       -6  1    1    2    0  502 -2.3355999637e+01 +2.3545879363e+01 +1.4977627527e+02 2.3121817357e+02 1.7300000000e+02 0.0000e+00 -1.0000e+00
       21  1    1    2  504  505 -9.0490705506e+00 +5.4505417281e+01 -1.5222926527e+02 1.6194590268e+02 0.0000000000e+00 0.0000e+00 1.0000e+00
       21  1    1    2  505  503 -9.4470447087e+01 -4.1246198754e+01 -2.3744453499e+02 2.5885482704e+02 0.0000000000e+00 0.0000e+00 1.0000e+00
<mgrwt>
<rscale>  4 0.19906383E+03</rscale>
<asrwt>0</asrwt>
<pdfrwt beam="1">  1       21 0.12358938E+00 0.19906383E+03</pdfrwt>
<pdfrwt beam="2">  1       21 0.71660082E-01 0.19906383E+03</pdfrwt>
<totfact> 0.85770905E+02</totfact>
</mgrwt>
</event>
<event>
 6      1 +2.5168241e+02 2.21104900e+02 7.54677100e-03 1.03924000e-01
       21 -1    0    0  504  502 +0.0000000000e+00 +0.0000000000e+00 +1.2594834465e+02 1.2594834465e+02 0.0000000000e+00 0.0000e+00 1.0000e+00
       21 -1    0    0  501  503 -0.0000000000e+00 -0.0000000000e+00 -1.3802576215e+03 1.3802576215e+03 0.0000000000e+00 0.0000e+00 -1.0000e+00
        6  1    1    2  501    0 -9.8246034932e+01 +1.0623775706e+02 -1.0233108620e+03 1.0478706336e+03 1.7300000000e+02 0.0000e+00 -1.0000e+00
       -6  1    1    2    0  505 +8.7724194847e+01 -8.0612894614e+01 -3.0114203009e+02 3.6716412601e+02 1.7300000000e+02 0.0000e+00 1.0000e+00
       21  1    1    2  504  503 -1.5568102008e+01 -2.6317902572e+01 +2.7232342774e+01 4.0946285410e+01 0.0000000000e+00 0.0000e+00 1.0000e+00
       21  1    1    2  505  502 +2.6089942094e+01 +6.9304012389e-01 +4.2911272560e+01 5.0224921063e+01 0.0000000000e+00 0.0000e+00 -1.0000e+00
<mgrwt>
<rscale>  4 0.22110488E+03</rscale>
<asrwt>0</asrwt>
<pdfrwt beam="1">  1       21 0.19376670E-01 0.22110488E+03</pdfrwt>
<pdfrwt beam="2">  1       21 0.21234731E+00 0.22110488E+03</pdfrwt>
<totfact> 0.26716171E+03</totfact>
</mgrwt>
</event>
<event>
 6      1 +2.5168241e+02 2.16029300e+02 7.54677100e-03 1.17389200e-01
       21 -1    0    0  504  502 +0.0000000000e+00 +0.0000000000e+00 +4.4238864179e+02 4.4238864179e+02 0.0000000000e+00 0.0000e+00 1.0000e+00
       21 -1    0    0  501  503 -0.0000000000e+00 -0.0000000000e+00 -4.5255769854e+02 4.5255769854e+02 0.0000000000e+00 0.0000e+00 1.0000e+00
        6  1    1    2  501    0 -5.7228152019e+01 -1.4821231813e+02 +3.2068535140e+02 3.9750477636e+02 1.7300000000e+02 0.0000e+00 1.0000e+00
       -6  1    1    2    0  502 -6.1157551250e+01 +2.9373484627e+01 -1.0194558623e+02 2.1195506653e+02 1.7300000000e+02 0.0000e+00 1.0000e+00
       21  1    1    2  504  505 +9.7672967981e+01 +7.9200999714e+01 -1.7357475083e+02 2.1433852000e+02 0.0000000000e+00 0.0000e+00 1.0000e+00
       21  1    1    2  505  503 +2.0712735289e+01 +3.9637833785e+01 -5.5334071095e+01 7.1147977443e+01 0.0000000000e+00 0.0000e+00 1.0000e+00
<mgrwt>
<rscale>  4 0.21602926E+03</rscale>
<asrwt>0</asrwt>
<pdfrwt beam="1">  1       21 0.68059791E-01 0.21602926E+03</pdfrwt>
<pdfrwt beam="2">  1       21 0.69624261E-01 0.21602926E+03</pdfrwt>
<totfact> 0.36274099E+03</totfact>
</mgrwt>
</event>
<event>
 6      1 +2.5168241e+02 2.29467200e+02 7.54677100e-03 1.09678400e-01
       21 -1    0    0  505  502 +0.0000000000e+00 +0.0000000000e+00 +1.5447155367e+03 1.5447155367e+03 0.0000000000e+00 0.0000e+00 1.0000e+00
       21 -1    0    0  504  503 -0.0000000000e+00 -0.0000000000e+00 -1.2728153039e+02 1.2728153039e+02 0.0000000000e+00 0.0000e+00 1.0000e+00
        6  1    1    2  501    0 +4.8359367347e+01 +1.6631033499e+02 +6.6794236424e+01 2.5374835163e+02 1.7300000000e+02 0.0000e+00 1.0000e+00
       -6  1    1    2    0  503 +1.0029179414e+02 -5.2700424901e+01 +8.5713432444e+02 8.8172786555e+02 1.7300000000e+02 0.0000e+00 -1.0000e+00
       21  1    1    2  504  502 -1.4151863728e+02 -5.6167104980e+01 +3.7104270366e+02 4.0106727156e+02 0.0000000000e+00 0.0000e+00 1.0000e+00
       21  1    1    2  505  501 -7.1325242075e+00 -5.7442805111e+01 +1.2246274183e+02 1.3545357838e+02 0.0000000000e+00 0.0000e+00 1.0000e+00
<mgrwt>
<rscale>  4 0.22946718E+03</rscale>
<asrwt>0</asrwt>
<pdfrwt beam="1">  1       21 0.23764853E+00 0.22946718E+03</pdfrwt>
<pdfrwt beam="2">  1       21 0.19581775E-01 0.22946718E+03</pdfrwt>
<totfact> 0.18172999E+03</totfact>
</mgrwt>
</event>
<event>
 6      1 +2.5168241e+02 2.20340400e+02 7.54677100e-03 1.16820100e-01
       21 -1    0    0  505  502 +0.0000000000e+00 +0.0000000000e+00 +8.1189636108e+02 8.1189636108e+02 0.0000000000e+00 0.0000e+00 -1.0000e+00
       21 -1    0    0  504  503 -0.0000000000e+00 -0.0000000000e+00 -2.1459820043e+02 2.1459820043e+02 0.0000000000e+00 0.0000e+00 -1.0000e+00
        6  1    1    2  501    0 +7.4125986381e+00 -1.4708647788e+02 +3.3877856403e+02 4.0790843830e+02 1.7300000000e+02 0.0000e+00 -1.0000e+00
       -6  1    1    2    0  503 -8.4943363627e+00 +1.4196880963e+02 -9.4411680475e+01 2.4304292227e+02 1.7300000000e+02 0.0000e+00 -1.0000e+00
       21  1    1    2  504  502 +2.0871805998e+01 -1.0013470225e+01 +1.4657534608e+00 2.3195911380e+01 0.0000000000e+00 0.0000e+00 1.0000e+00
       21  1    1    2  505  501 -1.9790068273e+01 +1.5131138481e+01 +3.5146552363e+02 3.5234728956e+02 0.0000000000e+00 0.0000e+00 -1.0000e+00
<mgrwt>
<rscale>  4 0.22034038E+03</rscale>
<asrwt>0</asrwt>
<pdfrwt beam="1">  1       21 0.12490713E+00 0.22034038E+03</pdfrwt>
<pdfrwt beam="2">  1       21 0.33015108E-01 0.22034038E+03</pdfrwt>
<totfact> 0.41281992E+03</totfact>
</mgrwt>
</event>
<event>
 6      1 +2.5168241e+02 2.24045800e+02 7.54677100e-03 1.17389200e-01
       21 -1    0    0  504  502 +0.0000000000e+00 +0.0000000000e+00 +1.1729597930e+02 1.1729597930e+02 0.0000000000e+00 0.0000e+00 -1.0000e+00
       21 -1    0    0  501  503 -0.0000000000e+00 -0.0000000000e+00 -1.1099095259e+03 1.1099095259e+03 0.0000000000e+00 0.0000e+00 1.0000e+00
        6  1    1    2  501    0 -1.0642145369e+02 -2.9976350559e+01 -3.3582494878e+02 3.9361339360e+02 1.7300000000e+02 0.0000e+00 1.0000e+00
       -6  1    1    2    0  502 +1.4191704645e+02 -9.7185346450e+01 -1.1795948956e+02 2.7097763896e+02 1.7300000000e+02 0.0000e+00 -1.0000e+00
       21  1    1    2  504  505 +2.0560159743e+01 +1.1879171085e+01 -3.2132073054e+01 3.9953785717e+01 0.0000000000e+00 0.0000e+00 1.0000e+00
       21  1    1    2  505  503 -5.6055752505e+01 +1.1528252592e+02 -5.0669703526e+02 5.2266068697e+02 0.0000000000e+00 0.0000e+00 1.0000e+00
<mgrwt>
<rscale>  4 0.22404578E+03</rscale>
<asrwt>0</asrwt>
<pdfrwt beam="1">  1       21 0.18045535E-01 0.22404578E+03</pdfrwt>
<pdfrwt beam="2">  1       21 0.17075531E+00 0.22404578E+03</pdfrwt>
<totfact> 0.57414321E+03</totfact>
</mgrwt>
</event>
<event>
 6      1 +2.5168241e+02 2.10022900e+02 7.54677100e-03 1.03924000e-01
       21 -1    0    0  504  502 +0.0000000000e+00 +0.0000000000e+00 +1.3479749688e+03 1.3479749688e+03 0.0000000000e+00 0.0000e+00 1.0000e+00
       21 -1    0    0  501  503 -0.0000000000e+00 -0.0000000000e+00 -1.1882659736e+02 1.1882659736e+02 0.0000000000e+00 0.0000e+00 -1.0000e+00
        6  1    1    2  501    0 +1.2866616150e+02 +9.1096686414e+01 +3.0671385248e+02 3.8581857744e+02 1.7300000000e+02 0.0000e+00 -1.0000e+00
       -6  1    1    2    0  505 -9.0002658430e+01 -5.3455247086e+01 +5.2007496800e+01 2.0878630628e+02 1.7300000000e+02 0.0000e+00 -1.0000e+00
       21  1    1    2  504  503 -1.7644300990e+01 -1.7594100913e+01 +3.0113468144e+02 3.0216381337e+02 0.0000000000e+00 0.0000e+00 1.0000e+00
       21  1    1    2  505  502 -2.1019202084e+01 -2.0047338414e+01 +5.6929234073e+02 5.7003286910e+02 0.0000000000e+00 0.0000e+00 1.0000e+00
<mgrwt>
<rscale>  4 0.21002291E+03</rscale>
<asrwt>0</asrwt>
<pdfrwt beam="1">  1       21 0.20738075E+00 0.21002291E+03</pdfrwt>
<pdfrwt beam="2">  1       21 0.18281016E-01 0.21002291E+03</pdfrwt>
<totfact> 0.32331376E+03</totfact>
</mgrwt>
</event>
<event>
 6      1 +2.5168241e+02 5.77714500e+02 7.54677100e-03 1.03924000e-01
       21 -1    0    0  504  502 +0.0000000000e+00 +0.0000000000e+00 +1.7603291980e+03 1.7603291980e+03 0.0000000000e+00 0.0000e+00 1.0000e+00
       21 -1    0    0  501  503 -0.0000000000e+00 -0.0000000000e+00 -3.4877740558e+02 3.4877740558e+02 0.0000000000e+00 0.0000e+00 1.0000e+00
        6  1    1    2  501    0 +2.6138198684e+02 +1.6623405031e+02 +2.0488966261e+01 3.5539147467e+02 1.7300000000e+02 0.0000e+00 -1.0000e+00
       -6  1    1    2    0  505 +9.1093343859e+01 +8.8953646122e+01 -6.3168953958e+01 2.2389744348e+02 1.7300000000e+02 0.0000e+00 1.0000e+00
       21  1    1    2  504  503 -1.1136956535e+02 -1.1429594703e+02 +8.4084965438e+02 8.5585915013e+02 0.0000000000e+00 0.0000e+00 1.0000e+00
       21  1    1    2  505  502 -2.4110576536e+02 -1.4089174940e+02 +6.1338212578e+02 6.7395853534e+02 0.0000000000e+00 0.0000e+00 1.0000e+00
<mgrwt>
<rscale>  4 0.57771452E+03</rscale>
<asrwt>0</asrwt>
<pdfrwt beam="1">  1       21 0.27081987E+00 0.57771452E+03</pdfrwt>
<pdfrwt beam="2">  1       21 0.53658063E-01 0.57771452E+03</pdfrwt>
<totfact> 0.12105126E+02</totfact>
</mgrwt>
</event>
<event>
 6      1 +2.5168241e+02 2.52948100e+02 7.54677100e-03 1.16820100e-01
       21 -1    0    0  505  502 +0.0000000000e+00 +0.0000000000e+00 +5.7104958169e+02 5.7104958169e+02 0.0000000000e+00 0.0000e+00 -1.0000e+00
       21 -1    0    0  504  503 -0.0000000000e+00 -0.0000000000e+00 -2.0695711510e+02 2.0695711510e+02 0.0000000000e+00 0.0000e+00 -1.0000e+00
        6  1    1    2  501    0 +1.7072351503e+01 +1.5333654093e+02 +3.1939780972e+02 3.9464860423e+02 1.7300000000e+02 0.0000e+00 -1.0000e+00
       -6  1    1    2    0  503 +3.8595149521e+00 -2.0637860769e+02 -3.6437108389e+01 2.7177874905e+02 1.7300000000e+02 0.0000e+00 -1.0000e+00
       21  1    1    2  504  502 -1.2473720176e+01 +1.6666395596e+01 -1.5291684108e+00 2.0873447085e+01 0.0000000000e+00 0.0000e+00 -1.0000e+00
       21  1    1    2  505  501 -8.4581462795e+00 +3.6375671156e+01 +8.2660933678e+01 9.0705896429e+01 0.0000000000e+00 0.0000e+00 -1.0000e+00
<mgrwt>
<rscale>  4 0.25294809E+03</rscale>
<asrwt>0</asrwt>
<pdfrwt beam="1">  1       21 0.87853781E-01 0.25294809E+03</pdfrwt>
<pdfrwt beam="2">  1       21 0.31839556E-01 0.25294809E+03</pdfrwt>
<totfact> 0.10146332E+04</totfact>
</mgrwt>
</event>
<event>
 6      1 +2.5168241e+02 2.24481700e+02 7.54677100e-03 1.06249800e-01
       21 -1    0    0  505  502 +0.0000000000e+00 +0.0000000000e+00 +6.6514339673e+02 6.6514339673e+02 0.0000000000e+00 0.0000e+00 1.0000e+00
       21 -1    0    0  504  503 -0.0000000000e+00 -0.0000000000e+00 -2.4898066216e+02 2.4898066216e+02 0.0000000000e+00 0.0000e+00 1.0000e+00
        6  1    1    2  501    0 -1.5028265111e+02 +3.6796037893e+01 +8.3893749063e+01 2.4679137902e+02 1.7300000000e+02 0.0000e+00 1.0000e+00
       -6  1    1    2    0  502 +1.3430164339e+02 -2.7015037140e+01 -5.4440838827e+01 2.2728737005e+02 1.7300000000e+02 0.0000e+00 1.0000e+00
       21  1    1    2  504  501 -3.7155680922e+01 +7.0065660485e+01 +5.9717217105e+01 9.9276822183e+01 0.0000000000e+00 0.0000e+00 -1.0000e+00
       21  1    1    2  505  503 +5.3136688635e+01 -7.9846661238e+01 +3.2699260723e+02 3.4076848764e+02 0.0000000000e+00 0.0000e+00 1.0000e+00
<mgrwt>
<rscale>  4 0.22448166E+03</rscale>
<asrwt>0</asrwt>
<pdfrwt beam="1">  1       21 0.10232975E+00 0.22448166E+03</pdfrwt>
<pdfrwt beam="2">  1       21 0.38304717E-01 0.22448166E+03</pdfrwt>
<totfact> 0.49856793E+03</totfact>
</mgrwt>
</event>
<event>
 6      1 +2.5168241e+02 3.11936000e+02 7.54677100e-03 1.11634100e-01
       21 -1    0    0  504  502 +0.0000000000e+00 +0.0000000000e+00 +6.0369606443e+02 6.0369606443e+02 0.0000000000e+00 0.0000e+00 -1.0000e+00
       21 -1    0    0  505  503 -0.0000000000e+00 -0.0000000000e+00 -5.5851653640e+02 5.5851653640e+02 0.0000000000e+00 0.0000e+00 -1.0000e+00
        6  1    1    2  501    0 +4.2599791948e+01 -9.5311569877e+01 -1.8167082514e+02 2.7172104507e+02 1.7300000000e+02 0.0000e+00 -1.0000e+00
       -6  1    1    2    0  502 +1.9792533110e+02 -7.3289424859e+00 -1.2928470154e+01 2.6329507293e+02 1.7300000000e+02 0.0000e+00 -1.0000e+00
       21  1    1    2  504  503 -2.6313333545e+02 +1.0524096154e+02 +3.8619556274e+02 4.7902173739e+02 0.0000000000e+00 0.0000e+00 -1.0000e+00
       21  1    1    2  505  501 +2.2608212397e+01 -2.6004491805e+00 -1.4641673942e+02 1.4817474544e+02 0.0000000000e+00 0.0000e+00 1.0000e+00
<mgrwt>
<rscale>  4 0.28110467E+03</rscale>
<asrwt>0</asrwt>
<pdfrwt beam="1">  1       21 0.92876318E-01 0.31193599E+03</pdfrwt>
<pdfrwt beam="2">  1       21 0.85925621E-01 0.31193599E+03</pdfrwt>
<totfact> 0.10395877E+03</totfact>
</mgrwt>
</event>
<event>
 6      1 +2.5168241e+02 2.52525400e+02 7.54677100e-03 1.16820100e-01
       21 -1    0    0  505  502 +0.0000000000e+00 +0.0000000000e+00 +3.8275471567e+02 3.8275471567e+02 0.0000000000e+00 0.0000e+00 1.0000e+00
       21 -1    0    0  504  503 -0.0000000000e+00 -0.0000000000e+00 -1.1960031424e+03 1.1960031424e+03 0.0000000000e+00 0.0000e+00 -1.0000e+00
        6  1    1    2  501    0 -2.1303499354e+02 +7.5558020702e+01 +1.0043505290e+02 3.0184287770e+02 1.7300000000e+02 0.0000e+00 1.0000e+00
       -6  1    1    2    0  503 +1.4172499712e+02 +3.1857614661e+01 -2.1405231549e+02 3.1120455682e+02 1.7300000000e+02 0.0000e+00 -1.0000e+00
       21  1    1    2  504  502 +5.4292380355e+01 +4.3774478392e+01 -7.8712055615e+02 7.9020417452e+02 0.0000000000e+00 0.0000e+00 -1.0000e+00
       21  1    1    2  505  501 +1.7017616068e+01 -1.5119011375e+02 +8.7489391977e+01 1.7550624907e+02 0.0000000000e+00 0.0000e+00 1.0000e+00
<mgrwt>
<rscale>  4 0.25252539E+03</rscale>
<asrwt>0</asrwt>
<pdfrwt beam="1">  1       21 0.58885342E-01 0.25252539E+03</pdfrwt>
<pdfrwt beam="2">  1       21 0.18400048E+00 0.25252539E+03</pdfrwt>
<totfact> 0.43274893E+02</totfact>
</mgrwt>
</event>
<event>
 6      1 +2.5168241e+02 2.03276400e+02 7.54677100e-03 1.11634100e-01
       21 -1    0    0  503  502 +0.0000000000e+00 +0.0000000000e+00 +4.0569042516e+02 4.0569042516e+02 0.0000000000e+00 0.0000e+00 1.0000e+00
       21 -1    0    0  505  503 -0.0000000000e+00 -0.0000000000e+00 -2.0819481147e+02 2.0819481147e+02 0.0000000000e+00 0.0000e+00 1.0000e+00
        6  1    1    2  501    0 +2.2725156614e+01 +1.1289486646e+02 +7.6238705960e+01 2.2136626641e+02 1.7300000000e+02 0.0000e+00 1.0000e+00
       -6  1    1    2    0  504 -4.7496099814e+01 -8.9448859441e+01 +8.7913428568e+01 2.1889437835e+02 1.7300000000e+02 0.0000e+00 1.0000e+00
       21  1    1    2  504  502 +8.1524325300e+01 +2.8763944614e+01 +4.1839545068e+01 9.6042322218e+01 0.0000000000e+00 0.0000e+00 -1.0000e+00
       21  1    1    2  505  501 -5.6753382101e+01 -5.2209951631e+01 -8.4960659080e+00 7.7582269657e+01 0.0000000000e+00 0.0000e+00 1.0000e+00
<mgrwt>
<rscale>  4 0.20327639E+03</rscale>
<asrwt>0</asrwt>
<pdfrwt beam="1">  1       21 0.62413911E-01 0.20327639E+03</pdfrwt>
<pdfrwt beam="2">  1       21 0.32029971E-01 0.20327639E+03</pdfrwt>
<totfact> 0.22174106E+04</totfact>
</mgrwt>
</event>
<event>
 6      1 +2.5168241e+02 1.96890000e+02 7.54677100e-03 1.16820100e-01
       21 -1    0    0  501  502 +0.0000000000e+00 +0.0000000000e+00 +1.5256999579e+03 1.5256999579e+03 0.0000000000e+00 0.0000e+00 -1.0000e+00
       21 -1    0    0  504  503 -0.0000000000e+00 -0.0000000000e+00 -1.1524347316e+03 1.1524347316e+03 0.0000000000e+00 0.0000e+00 -1.0000e+00
        6  1    1    2  501    0 +6.7189835898e+01 -3.5795311382e+01 -1.3734712738e+02 2.3364291508e+02 1.7300000000e+02 0.0000e+00 1.0000e+00
       -6  1    1    2    0  503 -2.9581542796e+01 +9.9272991587e+01 -8.0958584539e+02 8.3431914492e+02 1.7300000000e+02 0.0000e+00 -1.0000e+00
       21  1    1    2  504  505 -1.3004024434e+01 -7.1496906235e+01 -1.3575918397e+02 1.5398528594e+02 0.0000000000e+00 0.0000e+00 -1.0000e+00
       21  1    1    2  505  502 -2.4604268668e+01 +8.0192260297e+00 +1.4559573831e+03 1.4561873435e+03 0.0000000000e+00 0.0000e+00 -1.0000e+00
<mgrwt>
<rscale>  4 0.19688998E+03</rscale>
<asrwt>0</asrwt>
<pdfrwt beam="1">  1       21 0.23472307E+00 0.19688998E+03</pdfrwt>
<pdfrwt beam="2">  1       21 0.17729765E+00 0.19688998E+03</pdfrwt>
<totfact> 0.15433923E+01</totfact>
</mgrwt>
</event>
<event>
 6      1 +2.5168241e+02 3.19815700e+02 7.54677100e-03 1.17389200e-01
       21 -1    0    0  504  502 +0.0000000000e+00 +0.0000000000e+00 +7.1539522571e+02 7.1539522571e+02 0.0000000000e+00 0.0000e+00 1.0000e+00
       21 -1    0    0  501  503 -0.0000000000e+00 -0.0000000000e+00 -2.4946545290e+02 2.4946545290e+02 0.0000000000e+00 0.0000e+00 1.0000e+00
        6  1    1    2  501    0 +1.9555479061e+00 -2.6159454899e+02 +4.1512295595e+02 5.2028030982e+02 1.7300000000e+02 0.0000e+00 1.0000e+00
       -6  1    1    2    0  502 +8.0925899349e+01 +2.8581816186e+02 +6.9949863289e+01 3.5080337258e+02 1.7300000000e+02 0.0000e+00 1.0000e+00
       21  1    1    2  504  505 -5.1821087863e+01 +6.2914520235e-01 -1.3875729813e+01 5.3650320118e+01 0.0000000000e+00 0.0000e+00 1.0000e+00
       21  1    1    2  505  503 -3.1060359392e+01 -2.4852758073e+01 -5.2673166185e+00 4.0126676087e+01 0.0000000000e+00 0.0000e+00 1.0000e+00
<mgrwt>
<rscale>  4 0.31981573E+03</rscale>
<asrwt>0</asrwt>
<pdfrwt beam="1">  1       21 0.11006080E+00 0.31981573E+03</pdfrwt>
<pdfrwt beam="2">  1       21 0.38379301E-01 0.31981573E+03</pdfrwt>
<totfact> 0.39323115E+03</totfact>
</mgrwt>
</event>
<event>
 6      1 +2.5168241e+02 1.81408800e+02 7.54677100e-03 1.11634100e-01
       21 -1    0    0  504  502 +0.0000000000e+00 +0.0000000000e+00 +1.9657102704e+02 1.9657102704e+02 0.0000000000e+00 0.0000e+00 1.0000e+00
       21 -1    0    0  505  503 -0.0000000000e+00 -0.0000000000e+00 -7.3275681524e+02 7.3275681524e+02 0.0000000000e+00 0.0000e+00 1.0000e+00
        6  1    1    2  501    0 +1.2830356698e+01 -8.2498898283e+00 -2.5845586809e+02 3.1138579686e+02 1.7300000000e+02 0.0000e+00 1.0000e+00
       -6  1    1    2    0  502 -1.2206705655e+02 -1.1500227676e+02 -1.7951062518e+02 3.0046456448e+02 1.7300000000e+02 0.0000e+00 -1.0000e+00
       21  1    1    2  504  503 -2.1191757580e+01 +1.7496910375e+01 +7.2793753408e+01 7.7808502088e+01 0.0000000000e+00 0.0000e+00 1.0000e+00
       21  1    1    2  505  501 +1.3042845743e+02 +1.0575525621e+02 -1.7101304834e+02 2.3966897886e+02 0.0000000000e+00 0.0000e+00 1.0000e+00
<mgrwt>
<rscale>  4 0.18140876E+03</rscale>
<asrwt>0</asrwt>
<pdfrwt beam="1">  1       21 0.30241697E-01 0.18140876E+03</pdfrwt>
<pdfrwt beam="2">  1       21 0.11273182E+00 0.18140876E+03</pdfrwt>
<totfact> 0.65126064E+03</totfact>
</mgrwt>
</event>
<event>
 6      1 +2.5168241e+02 1.80305800e+02 7.54677100e-03 1.11634100e-01
       21 -1    0    0  504  502 +0.0000000000e+00 +0.0000000000e+00 +1.2404539946e+03 1.2404539946e+03 0.0000000000e+00 0.0000e+00 -1.0000e+00
       21 -1    0    0  505  503 -0.0000000000e+00 -0.0000000000e+00 -4.0954547414e+01 4.0954547414e+01 0.0000000000e+00 0.0000e+00 -1.0000e+00
        6  1    1    2  501    0 +2.9462474892e+01 +3.7337300395e+00 +5.5465953386e+02 5.8177158462e+02 1.7300000000e+02 0.0000e+00 -1.0000e+00
       -6  1    1    2    0  502 -7.1964876668e+01 -1.9893485978e+01 +5.4243892574e+02 5.7423312549e+02 1.7300000000e+02 0.0000e+00 -1.0000e+00
       21  1    1    2  504  503 -6.2494431639e-01 +2.2929322524e+01 +6.1275242144e+01 6.5427820433e+01 0.0000000000e+00 0.0000e+00 -1.0000e+00
       21  1    1    2  505  501 +4.3127346092e+01 -6.7695665849e+00 +4.1125745421e+01 5.9976011448e+01 0.0000000000e+00 0.0000e+00 -1.0000e+00
<mgrwt>
<rscale>  4 0.18030581E+03</rscale>
<asrwt>0</asrwt>
<pdfrwt beam="1">  1       21 0.19083905E+00 0.18030581E+03</pdfrwt>
<pdfrwt beam="2">  1       21 0.63007006E-02 0.18030581E+03</pdfrwt>
<totfact> 0.28169465E+04</totfact>
</mgrwt>
</event>
<event>
 6      1 +2.5168241e+02 2.87359200e+02 7.54677100e-03 1.06249800e-01
       21 -1    0    0  503  502 +0.0000000000e+00 +0.0000000000e+00 +2.1247665258e+03 2.1247665258e+03 0.0000000000e+00 0.0000e+00 1.0000e+00
       21 -1    0    0  501  503 -0.0000000000e+00 -0.0000000000e+00 -6.4862878870e+01 6.4862878870e+01 0.0000000000e+00 0.0000e+00 1.0000e+00
        6  1    1    2  501    0 +4.5358955806e+01 +1.7640231323e+02 +6.5777314951e+02 7.0410917279e+02 1.7300000000e+02 0.0000e+00 1.0000e+00
       -6  1    1    2    0  505 -1.5669883819e+02 -2.5361380841e+02 +8.6830411272e+02 9.3421385233e+02 1.7300000000e+02 0.0000e+00 1.0000e+00
       21  1    1    2  504  502 +9.1277979299e+01 +6.8546335725e+01 +4.7579667897e+02 4.8929822130e+02 0.0000000000e+00 0.0000e+00 1.0000e+00
       21  1    1    2  505  504 +2.0061903085e+01 +8.6651594546e+00 +5.8029705699e+01 6.2008158232e+01 0.0000000000e+00 0.0000e+00 1.0000e+00
<mgrwt>
<rscale>  4 0.28735917E+03</rscale>
<asrwt>0</asrwt>
<pdfrwt beam="1">  1       21 0.32688710E+00 0.28735917E+03</pdfrwt>
<pdfrwt beam="2">  1       21 0.99789061E-02 0.28735917E+03</pdfrwt>
<totfact> 0.17537165E+03</totfact>
</mgrwt>
</event>
<event>
 6      1 +2.5168241e+02 2.55795300e+02 7.54677100e-03 1.03924000e-01
       21 -1    0    0  504  502 +0.0000000000e+00 +0.0000000000e+00 +4.2055747638e+02 4.2055747638e+02 0.0000000000e+00 0.0000e+00 -1.0000e+00
       21 -1    0    0  501  503 -0.0000000000e+00 -0.0000000000e+00 -8.6843685629e+02 8.6843685629e+02 0.0000000000e+00 0.0000e+00 1.0000e+00
        6  1    1    2  501    0 -3.6564111325e+01 -1.3253697111e+02 +9.1884647945e+01 2.3932148143e+02 1.7300000000e+02 0.0000e+00 -1.0000e+00
       -6  1    1    2    0  505 +4.6223878017e+01 +1.8947806815e+02 -7.6948004974e+02 8.1244515640e+02 1.7300000000e+02 0.0000e+00 1.0000e+00
       21  1    1    2  504  503 -7.4641519528e+00 -2.2712033057e+01 +1.1660650542e+02 1.1903204240e+02 0.0000000000e+00 0.0000e+00 -1.0000e+00
       21  1    1    2  505  502 -2.1956147396e+00 -3.4229063985e+01 +1.1310951645e+02 1.1819565245e+02 0.0000000000e+00 0.0000e+00 -1.0000e+00
<mgrwt>
<rscale>  4 0.25579534E+03</rscale>
<asrwt>0</asrwt>
<pdfrwt beam="1">  1       21 0.64701151E-01 0.25579534E+03</pdfrwt>
<pdfrwt beam="2">  1       21 0.13360567E+00 0.25579534E+03</pdfrwt>
<totfact> 0.83753733E+02</totfact>
</mgrwt>
</event>
<event>
 6      1 +2.5168241e+02 2.07348600e+02 7.54677100e-03 1.14278100e-01
       21 -1    0    0  504  502 +0.0000000000e+00 +0.0000000000e+00 +9.6860359694e+01 9.6860359694e+01 0.0000000000e+00 0.0000e+00 1.0000e+00
       21 -1    0    0  502  503 -0.0000000000e+00 -0.0000000000e+00 -2.4029333070e+03 2.4029333070e+03 0.0000000000e+00 0.0000e+00 -1.0000e+00
        6  1    1    2  501    0 +1.0295720899e+02 -8.9512702871e+01 -1.6608445529e+03 1.6753943833e+03 1.7300000000e+02 0.0000e+00 -1.0000e+00
       -6  1    1    2    0  505 -2.6223552774e+01 +7.4272897184e+01 -6.1666194909e+02 6.4529458190e+02 1.7300000000e+02 0.0000e+00 -1.0000e+00
       21  1    1    2  504  501 +2.6095750309e+01 +2.4504669672e+01 -6.1134275642e+01 7.0843960069e+01 0.0000000000e+00 0.0000e+00 1.0000e+00
       21  1    1    2  505  503 -1.0282940653e+02 -9.2648639853e+00 +3.2567830322e+01 1.0826074138e+02 0.0000000000e+00 0.0000e+00 1.0000e+00
<mgrwt>
<rscale>  4 0.20734860E+03</rscale>
<asrwt>0</asrwt>
<pdfrwt beam="1">  1       21 0.14901593E-01 0.20734860E+03</pdfrwt>
<pdfrwt beam="2">  1       21 0.36968208E+00 0.20734860E+03</pdfrwt>
<totfact> 0.51832443E+02</totfact>
</mgrwt>
</event>
<event>
 6      1 +2.5168241e+02 2.42279600e+02 7.54677100e-03 1.14278100e-01
       21 -1    0    0  504  502 +0.0000000000e+00 +0.0000000000e+00 +4.7886568548e+02 4.7886568548e+02 0.0000000000e+00 0.0000e+00 -1.0000e+00
       21 -1    0    0  502  503 -0.0000000000e+00 -0.0000000000e+00 -2.7565289227e+02 2.7565289227e+02 0.0000000000e+00 0.0000e+00 -1.0000e+00
        6  1    1    2  501    0 -2.4147890284e+01 +1.5583525204e+02 -7.8485424020e+01 2.4689412339e+02 1.7300000000e+02 0.0000e+00 1.0000e+00
       -6  1    1    2    0  505 +1.1881471932e+01 -1.9189250986e+02 +4.9539480484e+01 2.6333830873e+02 1.7300000000e+02 0.0000e+00 1.0000e+00
       21  1    1    2  504  501 +1.8984956463e+01 +1.0973662525e+01 +2.0690427469e+02 2.0806304027e+02 0.0000000000e+00 0.0000e+00 -1.0000e+00
       21  1    1    2  505  503 -6.7185381108e+00 +2.5083595301e+01 +2.5254462056e+01 3.6223105352e+01 0.0000000000e+00 0.0000e+00 1.0000e+00
<mgrwt>
<rscale>  4 0.24227956E+03</rscale>
<asrwt>0</asrwt>
<pdfrwt beam="1">  1       21 0.73671644E-01 0.24227956E+03</pdfrwt>
<pdfrwt beam="2">  1       21 0.42408137E-01 0.24227956E+03</pdfrwt>
<totfact> 0.85688533E+03</totfact>
</mgrwt>
</event>
<event>
 6      1 +2.5168241e+02 2.52638600e+02 7.54677100e-03 1.03924000e-01
       21 -1    0    0  504  502 +0.0000000000e+00 +0.0000000000e+00 +1.4932554917e+02 1.4932554917e+02 0.0000000000e+00 0.0000e+00 -1.0000e+00
       21 -1    0    0  501  503 -0.0000000000e+00 -0.0000000000e+00 -5.8832978297e+02 5.8832978297e+02 0.0000000000e+00 0.0000e+00 -1.0000e+00
        6  1    1    2  501    0 +1.9952052466e+02 +5.7146770494e+00 -3.4455035602e+02 4.3414864404e+02 1.7300000000e+02 0.0000e+00 -1.0000e+00
       -6  1    1    2    0  505 -1.5819835063e+02 -2.3795039846e+00 -1.0847578724e+02 2.5831836288e+02 1.7300000000e+02 0.0000e+00 -1.0000e+00
       21  1    1    2  504  503 -2.1077396258e+01 +1.2929809735e+00 +1.2086444486e+01 2.4331267397e+01 0.0000000000e+00 0.0000e+00 -1.0000e+00
       21  1    1    2  505  502 -2.0244777766e+01 -4.6281540383e+00 +1.9354649697e+00 2.0857057828e+01 0.0000000000e+00 0.0000e+00 1.0000e+00
<mgrwt>
<rscale>  4 0.25263856E+03</rscale>
<asrwt>0</asrwt>
<pdfrwt beam="1">  1       21 0.22973161E-01 0.25263856E+03</pdfrwt>
<pdfrwt beam="2">  1       21 0.90512275E-01 0.25263856E+03</pdfrwt>
<totfact> 0.17826776E+04</totfact>
</mgrwt>
</event>
<event>
 6      1 +2.5168241e+02 2.98986100e+02 7.54677100e-03 1.16820100e-01
       21 -1    0    0  505  502 +0.0000000000e+00 +0.0000000000e+00 +2.3745856593e+03 2.3745856593e+03 0.0000000000e+00 0.0000e+00 1.0000e+00
       21 -1    0    0  501  503 -0.0000000000e+00 -0.0000000000e+00 -8.2863783993e+02 8.2863783993e+02 0.0000000000e+00 0.0000e+00 1.0000e+00
        6  1    1    2  501    0 -2.6002441949e+01 +5.9723990663e+01 -5.1583896007e+02 5.4796159972e+02 1.7300000000e+02 0.0000e+00 1.0000e+00
       -6  1    1    2    0  502 -1.4053952796e+02 +1.5716768287e+02 +2.5876976455e+01 2.7395557554e+02 1.7300000000e+02 0.0000e+00 -1.0000e+00
       21  1    1    2  504  503 +1.2333013195e+01 -2.5629868726e+01 -1.6464258351e+02 1.6708133855e+02 0.0000000000e+00 0.0000e+00 1.0000e+00
       21  1    1    2  505  504 +1.5420895671e+02 -1.9126180481e+02 +2.2005523865e+03 2.2142249854e+03 0.0000000000e+00 0.0000e+00 1.0000e+00
<mgrwt>
<rscale>  4 0.26266819E+03</rscale>
<asrwt>0</asrwt>
<pdfrwt beam="1">  1       21 0.36532087E+00 0.29898613E+03</pdfrwt>
<pdfrwt beam="2">  1       21 0.12748275E+00 0.29898613E+03</pdfrwt>
<totfact> 0.53673954E+00</totfact>
</mgrwt>
</event>
<event>
 6      1 +2.5168241e+02 1.81288100e+02 7.54677100e-03 1.11634100e-01
       21 -1    0    0  504  502 +0.0000000000e+00 +0.0000000000e+00 +8.8138056062e+01 8.8138056062e+01 0.0000000000e+00 0.0000e+00 -1.0000e+00
       21 -1    0    0  505  503 -0.0000000000e+00 -0.0000000000e+00 -7.7968491761e+02 7.7968491761e+02 0.0000000000e+00 0.0000e+00 -1.0000e+00
        6  1    1    2  501    0 -1.6420783353e+01 -1.1829950605e+01 -1.3088478117e+02 2.1787477091e+02 1.7300000000e+02 0.0000e+00 -1.0000e+00
       -6  1    1    2    0  502 +7.6689009394e+01 +2.5563294489e+01 -4.4175315423e+02 4.8125828352e+02 1.7300000000e+02 0.0000e+00 -1.0000e+00
       21  1    1    2  504  503 -3.5280890356e+01 -2.3461109461e+01 +4.3092069403e+00 4.2587957757e+01 0.0000000000e+00 0.0000e+00 -1.0000e+00
       21  1    1    2  505  501 -2.4987335686e+01 +9.7277655768e+00 -1.2321813309e+02 1.2610196148e+02 0.0000000000e+00 0.0000e+00 -1.0000e+00
<mgrwt>
<rscale>  4 0.18128806E+03</rscale>
<asrwt>0</asrwt>
<pdfrwt beam="1">  1       21 0.13559701E-01 0.18128806E+03</pdfrwt>
<pdfrwt beam="2">  1       21 0.11995152E+00 0.18128806E+03</pdfrwt>
<totfact> 0.25075995E+04</totfact>
</mgrwt>
</event>
<event>
 6      1 +2.5168241e+02 1.77839300e+02 7.54677100e-03 1.17389200e-01
       21 -1    0    0  504  502 +0.0000000000e+00 +0.0000000000e+00 +2.5347732847e+02 2.5347732847e+02 0.0000000000e+00 0.0000e+00 1.0000e+00
       21 -1    0    0  501  503 -0.0000000000e+00 -0.0000000000e+00 -1.2699023031e+03 1.2699023031e+03 0.0000000000e+00 0.0000e+00 -1.0000e+00
        6  1    1    2  501    0 +1.0299058618e+02 +7.7132379711e-02 -3.9546028123e+01 2.0518273595e+02 1.7300000000e+02 0.0000e+00 -1.0000e+00
       -6  1    1    2    0  502 +3.1705851986e-01 +4.1112784635e+01 +1.1720035869e+02 2.1296780429e+02 1.7300000000e+02 0.0000e+00 1.0000e+00
       21  1    1    2  504  505 -3.9960367153e+01 +1.5057057078e+01 -1.1815719311e+02 1.2563704945e+02 0.0000000000e+00 0.0000e+00 1.0000e+00
       21  1    1    2  505  503 -6.3347277545e+01 -5.6246974092e+01 -9.7592211205e+02 9.7959204185e+02 0.0000000000e+00 0.0000e+00 -1.0000e+00
<mgrwt>
<rscale>  4 0.17783932E+03</rscale>
<asrwt>0</asrwt>
<pdfrwt beam="1">  1       21 0.38996512E-01 0.17783932E+03</pdfrwt>
<pdfrwt beam="2">  1       21 0.19536958E+00 0.17783932E+03</pdfrwt>
<totfact> 0.92795986E+02</totfact>
</mgrwt>
</event>
<event>
 6      1 +2.5168241e+02 2.74705000e+02 7.54677100e-03 1.16820100e-01
       21 -1    0    0  501  502 +0.0000000000e+00 +0.0000000000e+00 +5.9104009705e+02 5.9104009705e+02 0.0000000000e+00 0.0000e+00 1.0000e+00
       21 -1    0    0  504  503 -0.0000000000e+00 -0.0000000000e+00 -1.7725228604e+02 1.7725228604e+02 0.0000000000e+00 0.0000e+00 1.0000e+00
        6  1    1    2  501    0 -1.8402473364e+02 -9.5281569882e+01 +1.9787890967e+02 3.3470695100e+02 1.7300000000e+02 0.0000e+00 1.0000e+00
       -6  1    1    2    0  503 +2.1465476078e+02 +6.0088744487e+01 +1.8703348735e+02 3.3852304047e+02 1.7300000000e+02 0.0000e+00 1.0000e+00
       21  1    1    2  504  505 -2.3667848164e+01 +8.2237518400e+00 -2.4382048937e+01 3.4961141878e+01 0.0000000000e+00 0.0000e+00 -1.0000e+00
       21  1    1    2  505  502 -6.9621789754e+00 +2.6969073554e+01 +5.3257462915e+01 6.0101249743e+01 0.0000000000e+00 0.0000e+00 1.0000e+00
<mgrwt>
<rscale>  4 0.27470499E+03</rscale>
<asrwt>0</asrwt>
<pdfrwt beam="1">  1       21 0.90929244E-01 0.27470499E+03</pdfrwt>
<pdfrwt beam="2">  1       21 0.27269583E-01 0.27470499E+03</pdfrwt>
<totfact> 0.12544360E+04</totfact>
</mgrwt>
</event>
<event>
 6      1 +2.5168241e+02 2.57732900e+02 7.54677100e-03 1.16820100e-01
       21 -1    0    0  501  502 +0.0000000000e+00 +0.0000000000e+00 +9.8273318766e+02 9.8273318766e+02 0.0000000000e+00 0.0000e+00 -1.0000e+00
       21 -1    0    0  504  503 -0.0000000000e+00 -0.0000000000e+00 -1.0617285467e+02 1.0617285467e+02 0.0000000000e+00 0.0000e+00 1.0000e+00
        6  1    1    2  501    0 -1.8224766394e+02 -8.5286831313e+01 +5.6724343684e+02 6.2624449798e+02 1.7300000000e+02 0.0000e+00 -1.0000e+00
       -6  1    1    2    0  503 +1.1543682882e+02 +1.3159075816e+02 +1.8494384716e+02 3.0785551105e+02 1.7300000000e+02 0.0000e+00 1.0000e+00
       21  1    1    2  504  505 +6.0592032528e+01 -2.5086675589e+01 +6.9054516425e+01 9.5232672632e+01 0.0000000000e+00 0.0000e+00 1.0000e+00
       21  1    1    2  505  502 +6.2188025897e+00 -2.1217251260e+01 +5.5318532566e+01 5.9573360674e+01 0.0000000000e+00 0.0000e+00 -1.0000e+00
<mgrwt>
<rscale>  4 0.25773288E+03</rscale>
<asrwt>0</asrwt>
<pdfrwt beam="1">  1       21 0.15118972E+00 0.25773288E+03</pdfrwt>
<pdfrwt beam="2">  1       21 0.16334286E-01 0.25773288E+03</pdfrwt>
<totfact> 0.94026592E+03</totfact>
</mgrwt>
</event>
<event>
 6      1 +2.5168241e+02 2.69466200e+02 7.54677100e-03 1.17389200e-01
       21 -1    0    0  504  502 +0.0000000000e+00 +0.0000000000e+00 +1.3000984438e+03 1.3000984438e+03 0.0000000000e+00 0.0000e+00 -1.0000e+00
       21 -1    0    0  501  503 -0.0000000000e+00 -0.0000000000e+00 -7.0673815122e+02 7.0673815122e+02 0.0000000000e+00 0.0000e+00 -1.0000e+00
        6  1    1    2  501    0 -7.5394110027e+01 +2.8511539939e+01 +7.8155430804e+02 8.0452055048e+02 1.7300000000e+02 0.0000e+00 -1.0000e+00
       -6  1    1    2    0  502 +8.0763620557e+00 +1.7029156191e+02 +4.5792582807e+02 5.1835268659e+02 1.7300000000e+02 0.0000e+00 1.0000e+00
       21  1    1    2  504  505 -9.0630335663e-01 -2.0316862262e+01 -1.7131158108e+01 2.6590841582e+01 0.0000000000e+00 0.0000e+00 1.0000e+00
       21  1    1    2  505  503 +6.8224051328e+01 -1.7848623959e+02 -6.2898868541e+02 6.5737251637e+02 0.0000000000e+00 0.0000e+00 -1.0000e+00
<mgrwt>
<rscale>  4 0.24718921E+03</rscale>
<asrwt>0</asrwt>
<pdfrwt beam="1">  1       21 0.20001514E+00 0.26946616E+03</pdfrwt>
<pdfrwt beam="2">  1       21 0.10872895E+00 0.26946616E+03</pdfrwt>
<totfact> 0.81956854E+01</totfact>
</mgrwt>
</event>
<event>
 6      1 +2.5168241e+02 1.96458800e+02 7.54677100e-03 1.07852700e-01
       21 -1    0    0  504  502 +0.0000000000e+00 +0.0000000000e+00 +2.1449786448e+02 2.1449786448e+02 0.0000000000e+00 0.0000e+00 -1.0000e+00
       21 -1    0    0  505  503 -0.0000000000e+00 -0.0000000000e+00 -6.2027856834e+02 6.2027856834e+02 0.0000000000e+00 0.0000e+00 1.0000e+00
        6  1    1    2  501    0 +3.3835165921e+01 +3.0701196303e+01 -1.9050825327e+02 2.6136139055e+02 1.7300000000e+02 0.0000e+00 1.0000e+00
       -6  1    1    2    0  503 -1.0929532160e+02 -8.1569431384e+01 -3.4415402510e+02 4.0861966724e+02 1.7300000000e+02 0.0000e+00 1.0000e+00
       21  1    1    2  504  501 +4.3580505182e+01 +4.6569792380e+01 +1.1092573692e+02 1.2795516835e+02 0.0000000000e+00 0.0000e+00 -1.0000e+00
       21  1    1    2  505  502 +3.1879650493e+01 +4.2984427010e+00 +1.7955837586e+01 3.6840206685e+01 0.0000000000e+00 0.0000e+00 -1.0000e+00
<mgrwt>
<rscale>  4 0.19645883E+03</rscale>
<asrwt>0</asrwt>
<pdfrwt beam="1">  1       21 0.32999672E-01 0.19645883E+03</pdfrwt>
<pdfrwt beam="2">  1       21 0.95427471E-01 0.19645883E+03</pdfrwt>
<totfact> 0.80815805E+03</totfact>
</mgrwt>
</event>
<event>
 6      1 +2.5168241e+02 2.34831600e+02 7.54677100e-03 1.15832300e-01
       21 -1    0    0  501  502 +0.0000000000e+00 +0.0000000000e+00 +2.0748773924e+03 2.0748773924e+03 0.0000000000e+00 0.0000e+00 -1.0000e+00
       21 -1    0    0  505  503 -0.0000000000e+00 -0.0000000000e+00 -3.5492829583e+02 3.5492829583e+02 0.0000000000e+00 0.0000e+00 1.0000e+00
        6  1    1    2  501    0 +4.5950065099e+01 +3.9081704830e+01 +7.5594172721e+02 7.7782754070e+02 1.7300000000e+02 0.0000e+00 -1.0000e+00
       -6  1    1    2    0  504 +1.5086662274e+02 +2.1468239064e+01 +3.0286611757e+02 3.8062909547e+02 1.7300000000e+02 0.0000e+00 1.0000e+00
       21  1    1    2  504  503 -1.9126837115e+02 -2.3537731406e+01 +9.5543952544e+02 9.7468061506e+02 0.0000000000e+00 0.0000e+00 -1.0000e+00
       21  1    1    2  505  502 -5.5483166867e+00 -3.7012212488e+01 -2.9429827361e+02 2.9666843705e+02 0.0000000000e+00 0.0000e+00 1.0000e+00
<mgrwt>
<rscale>  4 0.22022328E+03</rscale>
<asrwt>0</asrwt>
<pdfrwt beam="1">  1       21 0.31921190E+00 0.23483157E+03</pdfrwt>
<pdfrwt beam="2">  1       21 0.54604355E-01 0.23483157E+03</pdfrwt>
<totfact> 0.78420214E+01</totfact>
</mgrwt>
</event>
<event>
 6      1 +2.5168241e+02 1.81611900e+02 7.54677100e-03 1.11910500e-01
       21 -1    0    0  501  502 +0.0000000000e+00 +0.0000000000e+00 +8.2065413811e+02 8.2065413811e+02 0.0000000000e+00 0.0000e+00 -1.0000e+00
       21 -1    0    0  504  503 -0.0000000000e+00 -0.0000000000e+00 -1.5836394762e+02 1.5836394762e+02 0.0000000000e+00 0.0000e+00 -1.0000e+00
        6  1    1    2  501    0 +1.3311149620e+00 -2.1590301184e+01 +3.4393859082e+00 1.7438102634e+02 1.7300000000e+02 0.0000e+00 -1.0000e+00
       -6  1    1    2    0  503 -5.2820265236e+01 -3.8656966406e+01 +6.4018442334e+02 6.6637034550e+02 1.7300000000e+02 0.0000e+00 -1.0000e+00
       21  1    1    2  504  505 -4.5433966454e+00 -2.7741407476e+01 -1.0407455435e+01 2.9975711342e+01 0.0000000000e+00 0.0000e+00 -1.0000e+00
       21  1    1    2  505  502 +5.6032546920e+01 +8.7988675067e+01 +2.9073836680e+01 1.0829100255e+02 0.0000000000e+00 0.0000e+00 -1.0000e+00
<mgrwt>
<rscale>  4 0.18161188E+03</rscale>
<asrwt>0</asrwt>
<pdfrwt beam="1">  1       21 0.12625448E+00 0.18161188E+03</pdfrwt>
<pdfrwt beam="2">  1       21 0.24363685E-01 0.18161188E+03</pdfrwt>
<totfact> 0.74653562E+03</totfact>
</mgrwt>
</event>
<event>
 6      1 +2.5168241e+02 1.77598300e+02 7.54677100e-03 1.11634100e-01
       21 -1    0    0  504  502 +0.0000000000e+00 +0.0000000000e+00 +1.2696571017e+03 1.2696571017e+03 0.0000000000e+00 0.0000e+00 1.0000e+00
       21 -1    0    0  505  503 -0.0000000000e+00 -0.0000000000e+00 -1.3250809216e+02 1.3250809216e+02 0.0000000000e+00 0.0000e+00 1.0000e+00
        6  1    1    2  501    0 -7.9883036451e+01 -4.8362714833e+00 +9.1316767075e+01 2.1135856023e+02 1.7300000000e+02 0.0000e+00 1.0000e+00
       -6  1    1    2    0  502 -8.1220125753e+01 -9.1861710436e+01 +1.8084194626e+02 2.7868995712e+02 1.7300000000e+02 0.0000e+00 1.0000e+00
       21  1    1    2  504  503 +1.0075567609e+02 +6.8743433208e+01 +8.2613497165e+02 8.3509062817e+02 0.0000000000e+00 0.0000e+00 1.0000e+00
       21  1    1    2  505  501 +6.0347486111e+01 +2.7954548712e+01 +3.8855324532e+01 7.7026048309e+01 0.0000000000e+00 0.0000e+00 1.0000e+00
<mgrwt>
<rscale>  4 0.17759830E+03</rscale>
<asrwt>0</asrwt>
<pdfrwt beam="1">  1       21 0.19533185E+00 0.17759830E+03</pdfrwt>
<pdfrwt beam="2">  1       21 0.20385861E-01 0.17759830E+03</pdfrwt>
<totfact> 0.32543496E+03</totfact>
</mgrwt>
</event>
<event>
 6      1 +2.5168241e+02 2.35162500e+02 7.54677100e-03 1.16820100e-01
       21 -1    0    0  501  502 +0.0000000000e+00 +0.0000000000e+00 +1.0893124931e+02 1.0893124931e+02 0.0000000000e+00 0.0000e+00 -1.0000e+00
       21 -1    0    0  504  503 -0.0000000000e+00 -0.0000000000e+00 -8.5604949135e+02 8.5604949135e+02 0.0000000000e+00 0.0000e+00 -1.0000e+00
        6  1    1    2  501    0 +6.2079629168e+01 -1.2597860332e+02 -2.7723388087e+02 3.5568541375e+02 1.7300000000e+02 0.0000e+00 -1.0000e+00
       -6  1    1    2    0  503 -1.3536797816e+02 +1.2467390448e+02 -2.0525812353e+02 3.2546577277e+02 1.7300000000e+02 0.0000e+00 -1.0000e+00
       21  1    1    2  504  505 +5.7092288434e+01 +1.3274509574e+01 -2.5473618645e+02 2.6139293543e+02 0.0000000000e+00 0.0000e+00 -1.0000e+00
       21  1    1    2  505  502 +1.6196060563e+01 -1.1969810733e+01 -9.8900511938e+00 2.2436618715e+01 0.0000000000e+00 0.0000e+00 1.0000e+00
<mgrwt>
<rscale>  4 0.23516245E+03</rscale>
<asrwt>0</asrwt>
<pdfrwt beam="1">  1       21 0.16758654E-01 0.23516245E+03</pdfrwt>
<pdfrwt beam="2">  1       21 0.13169992E+00 0.23516245E+03</pdfrwt>
<totfact> 0.13027650E+04</totfact>
</mgrwt>
</event>
<event>
 6      1 +2.5168241e+02 2.60487900e+02 7.54677100e-03 1.17109600e-01
       21 -1    0    0  504  502 +0.0000000000e+00 +0.0000000000e+00 +2.1636549713e+03 2.1636549713e+03 0.0000000000e+00 0.0000e+00 1.0000e+00
       21 -1    0    0  501  503 -0.0000000000e+00 -0.0000000000e+00 -3.9074209044e+02 3.9074209044e+02 0.0000000000e+00 0.0000e+00 -1.0000e+00
        6  1    1    2  501    0 -1.5540349340e+02 +1.0920429421e+02 -2.9433713883e+02 3.9069063839e+02 1.7300000000e+02 0.0000e+00 -1.0000e+00
       -6  1    1    2    0  505 +3.1965704742e+02 -1.4282106771e+02 +1.4705363940e+03 1.5215074011e+03 1.7300000000e+02 0.0000e+00 1.0000e+00
       21  1    1    2  504  503 -9.8832401284e+01 +8.2853013913e+01 +2.0631936685e+02 2.4331080246e+02 0.0000000000e+00 0.0000e+00 1.0000e+00
       21  1    1    2  505  502 -6.5421152737e+01 -4.9236240416e+01 +3.9039425882e+02 3.9888821982e+02 0.0000000000e+00 0.0000e+00 1.0000e+00
<mgrwt>
<rscale>  4 0.26048795E+03</rscale>
<asrwt>0</asrwt>
<pdfrwt beam="1">  1       21 0.33286999E+00 0.26048795E+03</pdfrwt>
<pdfrwt beam="2">  1       21 0.60114169E-01 0.26048795E+03</pdfrwt>
<totfact> 0.51246138E+01</totfact>
</mgrwt>
</event>
<event>
 6      1 +2.5168241e+02 2.09808900e+02 7.54677100e-03 1.07852700e-01
       21 -1    0    0  504  502 +0.0000000000e+00 +0.0000000000e+00 +1.8070018896e+02 1.8070018896e+02 0.0000000000e+00 0.0000e+00 1.0000e+00
       21 -1    0    0  505  503 -0.0000000000e+00 -0.0000000000e+00 -6.5928293863e+02 6.5928293863e+02 0.0000000000e+00 0.0000e+00 -1.0000e+00
        6  1    1    2  501    0 +1.4846493070e+01 +1.2277721259e+02 -1.2298870983e+02 2.4566213593e+02 1.7300000000e+02 0.0000e+00 -1.0000e+00
       -6  1    1    2    0  503 +8.3695462320e+01 -1.2113001386e+02 -2.5613929806e+02 3.4236493787e+02 1.7300000000e+02 0.0000e+00 1.0000e+00
       21  1    1    2  504  501 -1.1831973514e+02 +2.2643338418e+01 -1.5006497435e+02 1.9243642334e+02 0.0000000000e+00 0.0000e+00 -1.0000e+00
       21  1    1    2  505  502 +1.9777779754e+01 -2.4290537148e+01 +5.0610232576e+01 5.9519630446e+01 0.0000000000e+00 0.0000e+00 1.0000e+00
<mgrwt>
<rscale>  4 0.20980890E+03</rscale>
<asrwt>0</asrwt>
<pdfrwt beam="1">  1       21 0.27800030E-01 0.20980890E+03</pdfrwt>
<pdfrwt beam="2">  1       21 0.10142814E+00 0.20980890E+03</pdfrwt>
<totfact> 0.96877618E+03</totfact>
</mgrwt>
</event>
<event>
 6      1 +2.5168241e+02 2.13403200e+02 7.54677100e-03 1.11910500e-01
       21 -1    0    0  501  502 +0.0000000000e+00 +0.0000000000e+00 +6.5224525007e+02 6.5224525007e+02 0.0000000000e+00 0.0000e+00 -1.0000e+00
       21 -1    0    0  505  503 -0.0000000000e+00 -0.0000000000e+00 -3.8802190930e+02 3.8802190930e+02 0.0000000000e+00 0.0000e+00 -1.0000e+00
        6  1    1    2  501    0 -1.3764842858e+02 +1.2090301847e+02 +4.7234500232e+01 2.5636834395e+02 1.7300000000e+02 0.0000e+00 -1.0000e+00
       -6  1    1    2    0  504 +9.4962010716e+01 -6.1579848150e+01 +4.7164704156e+02 5.1496581730e+02 1.7300000000e+02 0.0000e+00 -1.0000e+00
       21  1    1    2  504  503 +1.5353583989e+01 -1.5817350561e+01 -2.3856474824e+01 3.2481571869e+01 0.0000000000e+00 0.0000e+00 -1.0000e+00
       21  1    1    2  505  502 +2.7332833876e+01 -4.3505819760e+01 -2.3080172620e+02 2.3645142625e+02 0.0000000000e+00 0.0000e+00 -1.0000e+00
<mgrwt>
<rscale>  4 0.21340324E+03</rscale>
<asrwt>0</asrwt>
<pdfrwt beam="1">  1       21 0.10034542E+00 0.21340324E+03</pdfrwt>
<pdfrwt beam="2">  1       21 0.59695679E-01 0.21340324E+03</pdfrwt>
<totfact> 0.20944158E+03</totfact>
</mgrwt>
</event>
<event>
 6      1 +2.5168241e+02 1.75931100e+02 7.54677100e-03 1.11634100e-01
       21 -1    0    0  504  502 +0.0000000000e+00 +0.0000000000e+00 +1.0838435328e+03 1.0838435328e+03 0.0000000000e+00 0.0000e+00 1.0000e+00
       21 -1    0    0  505  503 -0.0000000000e+00 -0.0000000000e+00 -4.8863353776e+02 4.8863353776e+02 0.0000000000e+00 0.0000e+00 -1.0000e+00
        6  1    1    2  501    0 -7.4448764552e+01 -4.1275818460e+01 +3.6859626312e+02 4.1597898615e+02 1.7300000000e+02 0.0000e+00 1.0000e+00
       -6  1    1    2    0  502 +1.0652277122e+01 -2.6997679485e+01 +1.5029200093e+02 2.3099573859e+02 1.7300000000e+02 0.0000e+00 -1.0000e+00
       21  1    1    2  504  503 +6.7232387290e+01 +2.3412017527e+01 +4.9717731567e+02 5.0224854373e+02 0.0000000000e+00 0.0000e+00 1.0000e+00
       21  1    1    2  505  501 -3.4358998605e+00 +4.4861480418e+01 -4.2085558467e+02 4.2325380209e+02 0.0000000000e+00 0.0000e+00 -1.0000e+00
<mgrwt>
<rscale>  4 0.17593106E+03</rscale>
<asrwt>0</asrwt>
<pdfrwt beam="1">  1       21 0.16674516E+00 0.17593106E+03</pdfrwt>
<pdfrwt beam="2">  1       21 0.75174391E-01 0.17593106E+03</pdfrwt>
<totfact> 0.36347344E+02</totfact>
</mgrwt>
</event>
<event>
 6      1 +2.5168241e+02 2.26414600e+02 7.54677100e-03 1.16820100e-01
       21 -1    0    0  505  502 +0.0000000000e+00 +0.0000000000e+00 +9.5231943123e+02 9.5231943123e+02 0.0000000000e+00 0.0000e+00 -1.0000e+00
       21 -1    0    0  501  503 -0.0000000000e+00 -0.0000000000e+00 -2.3874945606e+02 2.3874945606e+02 0.0000000000e+00 0.0000e+00 1.0000e+00
        6  1    1    2  501    0 +7.8489941450e+01 -1.3288833657e+02 +1.5833469913e+02 2.8074696411e+02 1.7300000000e+02 0.0000e+00 1.0000e+00
       -6  1    1    2    0  502 -3.1444999892e+01 +1.2818489189e+02 +6.6305038410e+02 6.9784308149e+02 1.7300000000e+02 0.0000e+00 -1.0000e+00
       21  1    1    2  504  503 -3.2573979198e+01 -1.0507511438e+01 -1.5610991043e+02 1.5981794659e+02 0.0000000000e+00 0.0000e+00 1.0000e+00
       21  1    1    2  505  504 -1.4470962360e+01 +1.5210956120e+01 +4.8294802368e+01 5.2660895107e+01 0.0000000000e+00 0.0000e+00 1.0000e+00
<mgrwt>
<rscale>  4 0.22641461E+03</rscale>
<asrwt>0</asrwt>
<pdfrwt beam="1">  1       21 0.14651068E+00 0.22641461E+03</pdfrwt>
<pdfrwt beam="2">  1       21 0.36730686E-01 0.22641461E+03</pdfrwt>
<totfact> 0.22055168E+03</totfact>
</mgrwt>
</event>
<event>
 6      1 +2.5168241e+02 2.96958400e+02 7.54677100e-03 1.14278100e-01
       21 -1    0    0  501  502 +0.0000000000e+00 +0.0000000000e+00 +4.7554315851e+02 4.7554315851e+02 0.0000000000e+00 0.0000e+00 -1.0000e+00
       21 -1    0    0  504  503 -0.0000000000e+00 -0.0000000000e+00 -8.5956361280e+02 8.5956361280e+02 0.0000000000e+00 0.0000e+00 -1.0000e+00
        6  1    1    2  501    0 +3.1075787477e+00 -1.0776554387e+02 -5.4832056472e+01 2.1108913735e+02 1.7300000000e+02 0.0000e+00 -1.0000e+00
       -6  1    1    2    0  505 -2.2664665613e+02 -2.2790909270e+02 -4.2083921628e+02 5.5708698354e+02 1.7300000000e+02 0.0000e+00 -1.0000e+00
       21  1    1    2  504  502 +7.2812288948e+01 +1.5702377329e+02 -1.5123120369e+02 2.2984553893e+02 0.0000000000e+00 0.0000e+00 -1.0000e+00
       21  1    1    2  505  503 +1.5072678843e+02 +1.7865086328e+02 +2.4288202214e+02 3.3708511148e+02 0.0000000000e+00 0.0000e+00 -1.0000e+00
<mgrwt>
<rscale>  4 0.26558833E+03</rscale>
<asrwt>0</asrwt>
<pdfrwt beam="1">  1       21 0.73160486E-01 0.29695838E+03</pdfrwt>
<pdfrwt beam="2">  1       21 0.13224056E+00 0.29695838E+03</pdfrwt>
<totfact> 0.63480892E+02</totfact>
</mgrwt>
</event>
<event>
 6      1 +2.5168241e+02 1.90325700e+02 7.54677100e-03 1.16820100e-01
       21 -1    0    0  501  502 +0.0000000000e+00 +0.0000000000e+00 +1.2398988143e+03 1.2398988143e+03 0.0000000000e+00 0.0000e+00 -1.0000e+00
       21 -1    0    0  504  503 -0.0000000000e+00 -0.0000000000e+00 -1.5998768261e+02 1.5998768261e+02 0.0000000000e+00 0.0000e+00 -1.0000e+00
        6  1    1    2  501    0 +4.3267276119e+01 -5.8730987583e+01 +7.5271761560e+02 7.7577973350e+02 1.7300000000e+02 0.0000e+00 -1.0000e+00
       -6  1    1    2    0  503 -7.0602240241e+01 -6.9578585699e+00 -3.1567432665e+01 1.8962750573e+02 1.7300000000e+02 0.0000e+00 -1.0000e+00
       21  1    1    2  504  505 +2.6203941128e+00 +5.6617956716e+01 -1.5922046257e+01 5.8872498206e+01 0.0000000000e+00 0.0000e+00 -1.0000e+00
       21  1    1    2  505  502 +2.4714570009e+01 +9.0708894371e+00 +3.7468299500e+02 3.7560675945e+02 0.0000000000e+00 0.0000e+00 1.0000e+00
<mgrwt>
<rscale>  4 0.19032568E+03</rscale>
<asrwt>0</asrwt>
<pdfrwt beam="1">  1       21 0.19075366E+00 0.19032568E+03</pdfrwt>
<pdfrwt beam="2">  1       21 0.24613490E-01 0.19032568E+03</pdfrwt>
<totfact> 0.24117720E+03</totfact>
</mgrwt>
</event>
<event>
 6      1 +2.5168241e+02 2.15708400e+02 7.54677100e-03 1.17389200e-01
       21 -1    0    0  504  502 +0.0000000000e+00 +0.0000000000e+00 +1.3803550316e+02 1.3803550316e+02 0.0000000000e+00 0.0000e+00 -1.0000e+00
       21 -1    0    0  501  503 -0.0000000000e+00 -0.0000000000e+00 -1.8986998287e+03 1.8986998287e+03 0.0000000000e+00 0.0000e+00 -1.0000e+00
        6  1    1    2  501    0 +1.4143558645e+02 -4.1860661525e+01 -1.9573328034e+02 2.9999476183e+02 1.7300000000e+02 0.0000e+00 -1.0000e+00
       -6  1    1    2    0  502 -1.0293267477e+02 -1.1489903002e+02 -1.0323800437e+02 2.5374004055e+02 1.7300000000e+02 0.0000e+00 1.0000e+00
       21  1    1    2  504  505 -1.9844593589e+01 -4.3026335472e+01 -2.0619023646e+02 2.1156438039e+02 0.0000000000e+00 0.0000e+00 -1.0000e+00
       21  1    1    2  505  503 -1.8658318092e+01 +1.9978602701e+02 -1.2555028044e+03 1.2714361491e+03 0.0000000000e+00 0.0000e+00 -1.0000e+00
<mgrwt>
<rscale>  4 0.21570837E+03</rscale>
<asrwt>0</asrwt>
<pdfrwt beam="1">  1       21 0.21236230E-01 0.21570837E+03</pdfrwt>
<pdfrwt beam="2">  1       21 0.29210768E+00 0.21570837E+03</pdfrwt>
<totfact> 0.75874975E+02</totfact>
</mgrwt>
</event>
<event>
 6      1 +2.5168241e+02 1.84232400e+02 7.54677100e-03 1.11316500e-01
       21 -1    0    0  505  502 +0.0000000000e+00 +0.0000000000e+00 +1.0701189490e+02 1.0701189490e+02 0.0000000000e+00 0.0000e+00 -1.0000e+00
       21 -1    0    0  504  503 -0.0000000000e+00 -0.0000000000e+00 -1.0505145742e+03 1.0505145742e+03 0.0000000000e+00 0.0000e+00 -1.0000e+00
        6  1    1    2  501    0 +4.3233872001e+01 -3.4761863225e+01 -5.4073540867e+01 1.8955342953e+02 1.7300000000e+02 0.0000e+00 -1.0000e+00
       -6  1    1    2    0  502 -9.9124403884e+01 +2.4875610340e+01 -4.1781974047e+02 4.6362353150e+02 1.7300000000e+02 0.0000e+00 -1.0000e+00
       21  1    1    2  504  501 +9.8971146569e+00 +3.4193616054e+01 -6.3112169078e+00 3.6152285076e+01 0.0000000000e+00 0.0000e+00 1.0000e+00
       21  1    1    2  505  503 +4.5993417227e+01 -2.4307363169e+01 -4.6529818111e+02 4.6819722305e+02 0.0000000000e+00 0.0000e+00 -1.0000e+00
<mgrwt>
<rscale>  4 0.18423240E+03</rscale>
<asrwt>0</asrwt>
<pdfrwt beam="1">  1       21 0.16463369E-01 0.18423240E+03</pdfrwt>
<pdfrwt beam="2">  1       21 0.16161762E+00 0.18423240E+03</pdfrwt>
<totfact> 0.81607160E+03</totfact>
</mgrwt>
</event>
<event>
 6      1 +2.5168241e+02 1.96827500e+02 7.54677100e-03 1.17389200e-01
       21 -1    0    0  504  502 +0.0000000000e+00 +0.0000000000e+00 +4.5162395222e+02 4.5162395222e+02 0.0000000000e+00 0.0000e+00 1.0000e+00
       21 -1    0    0  501  503 -0.0000000000e+00 -0.0000000000e+00 -7.3145764796e+02 7.3145764796e+02 0.0000000000e+00 0.0000e+00 1.0000e+00
        6  1    1    2  501    0 +1.6326481248e+01 -6.1266354201e+01 -5.9888764773e+00 1.8435017437e+02 1.7300000000e+02 0.0000e+00 -1.0000e+00
       -6  1    1    2    0  502 +3.3413383472e+01 +1.0073689435e+02 +3.1740799642e+02 3.7675086233e+02 1.7300000000e+02 0.0000e+00 1.0000e+00
       21  1    1    2  504  505 -3.9412930899e+01 +4.5655221828e+01 -6.4549338820e+01 8.8342490028e+01 0.0000000000e+00 0.0000e+00 1.0000e+00
       21  1    1    2  505  503 -1.0326933821e+01 -8.5125761977e+01 -5.2670347685e+02 5.3363807346e+02 0.0000000000e+00 0.0000e+00 1.0000e+00
<mgrwt>
<rscale>  4 0.19682752E+03</rscale>
<asrwt>0</asrwt>
<pdfrwt beam="1">  1       21 0.69480608E-01 0.19682752E+03</pdfrwt>
<pdfrwt beam="2">  1       21 0.11253195E+00 0.19682752E+03</pdfrwt>
<totfact> 0.11593367E+03</totfact>
</mgrwt>
</event>
<event>
 6      1 +2.5168241e+02 1.73043400e+02 7.54677100e-03 1.07852700e-01
       21 -1    0    0  504  502 +0.0000000000e+00 +0.0000000000e+00 +1.4552824472e+02 1.4552824472e+02 0.0000000000e+00 0.0000e+00 1.0000e+00
       21 -1    0    0  505  503 -0.0000000000e+00 -0.0000000000e+00 -9.6269009286e+02 9.6269009286e+02 0.0000000000e+00 0.0000e+00 1.0000e+00
        6  1    1    2  501    0 -1.5554131242e+01 +4.4357714520e+00 -7.2141511350e+02 7.4204472443e+02 1.7300000000e+02 0.0000e+00 1.0000e+00
       -6  1    1    2    0  503 -4.4483223810e+01 +2.8027541748e+01 -1.6713698927e+02 2.4622768626e+02 1.7300000000e+02 0.0000e+00 1.0000e+00
       21  1    1    2  504  501 +2.4800675271e+01 +1.7688258451e+01 +4.2229427473e+01 5.2069881175e+01 0.0000000000e+00 0.0000e+00 1.0000e+00
       21  1    1    2  505  502 +3.5236679781e+01 -5.0151571651e+01 +2.9160827167e+01 6.7876045717e+01 0.0000000000e+00 0.0000e+00 1.0000e+00
<mgrwt>
<rscale>  4 0.17304341E+03</rscale>
<asrwt>0</asrwt>
<pdfrwt beam="1">  1       21 0.22388960E-01 0.17304341E+03</pdfrwt>
<pdfrwt beam="2">  1       21 0.14810617E+00 0.17304341E+03</pdfrwt>
<totfact> 0.58685560E+03</totfact>
</mgrwt>
</event>
<event>
 6      1 +2.5168241e+02 2.66816000e+02 7.54677100e-03 1.06012000e-01
       21 -1    0    0  504  502 +0.0000000000e+00 +0.0000000000e+00 +6.9217769853e+02 6.9217769853e+02 0.0000000000e+00 0.0000e+00 1.0000e+00
       21 -1    0    0  505  503 -0.0000000000e+00 -0.0000000000e+00 -8.3212617399e+02 8.3212617399e+02 0.0000000000e+00 0.0000e+00 1.0000e+00
        6  1    1    2  501    0 -4.1125063346e+01 -3.7020008455e+01 -5.4903975521e+02 5.7830390338e+02 1.7300000000e+02 0.0000e+00 1.0000e+00
       -6  1    1    2    0  502 +5.5405021290e+01 -1.9270566741e+02 +5.9192338233e+02 6.4846548188e+02 1.7300000000e+02 0.0000e+00 1.0000e+00
       21  1    1    2  504  503 -2.4886637365e+00 +3.0013116882e+01 -4.6635939760e+01 5.5514786404e+01 0.0000000000e+00 0.0000e+00 1.0000e+00
       21  1    1    2  505  501 -1.1791294208e+01 +1.9971255898e+02 -1.3619616282e+02 2.4201970086e+02 0.0000000000e+00 0.0000e+00 1.0000e+00
<mgrwt>
<rscale>  4 0.24235835E+03</rscale>
<asrwt>0</asrwt>
<pdfrwt beam="1">  1       21 0.10648888E+00 0.26681604E+03</pdfrwt>
<pdfrwt beam="2">  1       21 0.12801941E+00 0.26681604E+03</pdfrwt>
<totfact> 0.29406830E+02</totfact>
</mgrwt>
</event>
<event>
 6      1 +2.5168241e+02 1.78694400e+02 7.54677100e-03 1.17341900e-01
       21 -1    0    0  505  502 +0.0000000000e+00 +0.0000000000e+00 +1.3725840948e+03 1.3725840948e+03 0.0000000000e+00 0.0000e+00 -1.0000e+00
       21 -1    0    0  504  503 -0.0000000000e+00 -0.0000000000e+00 -1.1847335637e+02 1.1847335637e+02 0.0000000000e+00 0.0000e+00 1.0000e+00
        6  1    1    2  501    0 +7.5706284141e+01 -7.5438398556e+01 +2.6848210635e+02 3.3679969546e+02 1.7300000000e+02 0.0000e+00 1.0000e+00
       -6  1    1    2    0  503 -1.9869811883e+01 -9.4777050753e+00 +3.2419061273e+01 1.7738272704e+02 1.7300000000e+02 0.0000e+00 1.0000e+00
       21  1    1    2  504  502 -4.5951503467e+01 +6.6452909275e+01 +9.5249978941e+02 9.5592017378e+02 0.0000000000e+00 0.0000e+00 -1.0000e+00
       21  1    1    2  505  501 -9.8849687907e+00 +1.8463194356e+01 +7.0978140553e-01 2.0954854890e+01 0.0000000000e+00 0.0000e+00 -1.0000e+00
<mgrwt>
<rscale>  4 0.17869441E+03</rscale>
<asrwt>0</asrwt>
<pdfrwt beam="1">  1       21 0.21116677E+00 0.17869441E+03</pdfrwt>
<pdfrwt beam="2">  1       21 0.18226671E-01 0.17869441E+03</pdfrwt>
<totfact> 0.31759020E+03</totfact>
</mgrwt>
</event>
<event>
 6      1 +2.5168241e+02 2.38659400e+02 7.54677100e-03 1.09588500e-01
       21 -1    0    0  505  502 +0.0000000000e+00 +0.0000000000e+00 +3.1573047333e+02 3.1573047333e+02 0.0000000000e+00 0.0000e+00 -1.0000e+00
       21 -1    0    0  502  503 -0.0000000000e+00 -0.0000000000e+00 -3.1133495117e+02 3.1133495117e+02 0.0000000000e+00 0.0000e+00 1.0000e+00
        6  1    1    2  501    0 +8.1924903634e+01 -1.3119561150e+02 -8.8417745054e+01 2.4833581287e+02 1.7300000000e+02 0.0000e+00 1.0000e+00
       -6  1    1    2    0  504 -9.9310345413e+01 +1.5356671978e+02 +4.7208522102e+01 2.5613068283e+02 1.7300000000e+02 0.0000e+00 -1.0000e+00
       21  1    1    2  504  503 -7.0846572278e-01 -6.3974422330e+01 +4.3140641189e+01 7.7164393073e+01 0.0000000000e+00 0.0000e+00 -1.0000e+00
       21  1    1    2  505  501 +1.8093907502e+01 +4.1603314048e+01 +2.4641039198e+00 4.5434535725e+01 0.0000000000e+00 0.0000e+00 -1.0000e+00
<mgrwt>
<rscale>  4 0.23865943E+03</rscale>
<asrwt>0</asrwt>
<pdfrwt beam="1">  1       21 0.48573919E-01 0.23865943E+03</pdfrwt>
<pdfrwt beam="2">  1       21 0.47897685E-01 0.23865943E+03</pdfrwt>
<totfact> 0.16415328E+04</totfact>
</mgrwt>
</event>
<event>
 6      1 +2.5168241e+02 2.75162500e+02 7.54677100e-03 1.17389200e-01
       21 -1    0    0  504  502 +0.0000000000e+00 +0.0000000000e+00 +1.5931148630e+03 1.5931148630e+03 0.0000000000e+00 0.0000e+00 -1.0000e+00
       21 -1    0    0  501  503 -0.0000000000e+00 -0.0000000000e+00 -6.5828500017e+01 6.5828500017e+01 0.0000000000e+00 0.0000e+00 -1.0000e+00
        6  1    1    2  501    0 -1.1596031232e+02 -1.6793350754e+02 +6.3454259111e+02 6.8863760928e+02 1.7300000000e+02 0.0000e+00 -1.0000e+00
       -6  1    1    2    0  502 +7.0210403040e+01 +2.1592841467e+02 +8.1908492368e+02 8.6740053791e+02 1.7300000000e+02 0.0000e+00 -1.0000e+00
       21  1    1    2  504  505 +3.0085870395e+01 -2.4037426680e+01 +2.3383987517e+01 4.5052950525e+01 0.0000000000e+00 0.0000e+00 -1.0000e+00
       21  1    1    2  505  503 +1.5664038886e+01 -2.3957480457e+01 +5.0274860629e+01 5.7852265257e+01 0.0000000000e+00 0.0000e+00 -1.0000e+00
<mgrwt>
<rscale>  4 0.27516249E+03</rscale>
<asrwt>0</asrwt>
<pdfrwt beam="1">  1       21 0.24509457E+00 0.27516249E+03</pdfrwt>
<pdfrwt beam="2">  1       21 0.10127463E-01 0.27516249E+03</pdfrwt>
<totfact> 0.52530865E+03</totfact>
</mgrwt>
</event>
<event>
 6      1 +2.5168241e+02 1.73192400e+02 7.54677100e-03 1.16820100e-01
       21 -1    0    0  504  502 +0.0000000000e+00 +0.0000000000e+00 +1.6054683708e+02 1.6054683708e+02 0.0000000000e+00 0.0000e+00 1.0000e+00
       21 -1    0    0  501  503 -0.0000000000e+00 -0.0000000000e+00 -2.1398652080e+03 2.1398652080e+03 0.0000000000e+00 0.0000e+00 -1.0000e+00
        6  1    1    2  501    0 -1.2077658792e+01 -6.0392531454e+01 -2.8759495767e+02 3.4122278261e+02 1.7300000000e+02 0.0000e+00 -1.0000e+00
       -6  1    1    2    0  505 +3.7700080587e+00 -4.7529108379e+01 -1.0464149988e+02 2.0773076951e+02 1.7300000000e+02 0.0000e+00 1.0000e+00
       21  1    1    2  504  503 +5.6169451153e+01 +7.2074945435e+01 -1.6569655074e+03 1.6594832020e+03 0.0000000000e+00 0.0000e+00 -1.0000e+00
       21  1    1    2  505  502 -4.7861800420e+01 +3.5846694398e+01 +6.9883594008e+01 9.1975290976e+01 0.0000000000e+00 0.0000e+00 1.0000e+00
<mgrwt>
<rscale>  4 0.17319239E+03</rscale>
<asrwt>0</asrwt>
<pdfrwt beam="1">  1       21 0.24699514E-01 0.17319239E+03</pdfrwt>
<pdfrwt beam="2">  1       21 0.32921002E+00 0.17319239E+03</pdfrwt>
<totfact> 0.37032357E+02</totfact>
</mgrwt>
</event>
<event>
 6      1 +2.5168241e+02 1.88386700e+02 7.54677100e-03 1.11910500e-01
       21 -1    0    0  501  502 +0.0000000000e+00 +0.0000000000e+00 +1.8768954209e+02 1.8768954209e+02 0.0000000000e+00 0.0000e+00 -1.0000e+00
       21 -1    0    0  504  503 -0.0000000000e+00 -0.0000000000e+00 -1.8967261005e+03 1.8967261005e+03 0.0000000000e+00 0.0000e+00 -1.0000e+00
        6  1    1    2  501    0 -3.1423512621e+01 -7.9997120638e+01 +6.6813910252e+01 2.0440174916e+02 1.7300000000e+02 0.0000e+00 -1.0000e+00
       -6  1    1    2    0  503 +4.3750253575e+01 +3.0348752417e+01 -1.2591279658e+02 2.2049526934e+02 1.7300000000e+02 0.0000e+00 1.0000e+00
       21  1    1    2  504  505 -2.3255658348e+01 +7.2733035265e+00 -1.5526551887e+03 1.5528463741e+03 0.0000000000e+00 0.0000e+00 -1.0000e+00
       21  1    1    2  505  502 +1.0928917394e+01 +4.2375064695e+01 -9.7282483420e+01 1.0667225002e+02 0.0000000000e+00 0.0000e+00 -1.0000e+00
<mgrwt>
<rscale>  4 0.18838673E+03</rscale>
<asrwt>0</asrwt>
<pdfrwt beam="1">  1       21 0.28875314E-01 0.18838673E+03</pdfrwt>
<pdfrwt beam="2">  1       21 0.29180401E+00 0.18838673E+03</pdfrwt>
<totfact> 0.43950423E+02</totfact>
</mgrwt>
</event>
<event>
 6      1 +2.5168241e+02 2.63275700e+02 7.54677100e-03 1.16820100e-01
       21 -1    0    0  504  502 +0.0000000000e+00 +0.0000000000e+00 +4.8547238639e+02 4.8547238639e+02 0.0000000000e+00 0.0000e+00 -1.0000e+00
       21 -1    0    0  501  503 -0.0000000000e+00 -0.0000000000e+00 -2.9137984081e+02 2.9137984081e+02 0.0000000000e+00 0.0000e+00 -1.0000e+00
        6  1    1    2  501    0 +1.8724631906e+02 -1.3127387943e+02 +1.6072484968e+02 3.2871795316e+02 1.7300000000e+02 0.0000e+00 -1.0000e+00
       -6  1    1    2    0  505 -1.6233932062e+02 +4.0237877961e+01 +5.2667803474e+00 2.4068627052e+02 1.7300000000e+02 0.0000e+00 -1.0000e+00
       21  1    1    2  504  503 -4.1295513393e+01 +4.1892951257e+01 -7.3057691184e+01 9.3796402023e+01 0.0000000000e+00 0.0000e+00 -1.0000e+00
       21  1    1    2  505  502 +1.6388514949e+01 +4.9143050215e+01 +1.0115860673e+02 1.1365160149e+02 0.0000000000e+00 0.0000e+00 -1.0000e+00
<mgrwt>
<rscale>  4 0.26327571E+03</rscale>
<asrwt>0</asrwt>
<pdfrwt beam="1">  1       21 0.74688059E-01 0.26327571E+03</pdfrwt>
<pdfrwt beam="2">  1       21 0.44827668E-01 0.26327571E+03</pdfrwt>
<totfact> 0.73250962E+03</totfact>
</mgrwt>
</event>
<event>
 6      1 +2.5168241e+02 2.43596600e+02 7.54677100e-03 1.16820100e-01
       21 -1    0    0  504  502 +0.0000000000e+00 +0.0000000000e+00 +7.5898064020e+02 7.5898064020e+02 0.0000000000e+00 0.0000e+00 1.0000e+00
       21 -1    0    0  501  503 -0.0000000000e+00 -0.0000000000e+00 -3.5596905070e+02 3.5596905070e+02 0.0000000000e+00 0.0000e+00 -1.0000e+00
        6  1    1    2  501    0 +1.2627860144e+02 +1.2098819199e+02 -1.7630269816e+02 3.0264842501e+02 1.7300000000e+02 0.0000e+00 -1.0000e+00
       -6  1    1    2    0  505 -1.1387221383e+02 -1.1759166345e+02 +5.0455898468e+01 2.4345323593e+02 1.7300000000e+02 0.0000e+00 -1.0000e+00
       21  1    1    2  504  503 -4.3651332119e+01 -3.6472377360e+01 +2.3664170970e+01 6.1608977379e+01 0.0000000000e+00 0.0000e+00 -1.0000e+00
       21  1    1    2  505  502 +3.1244944508e+01 +3.3075848819e+01 +5.0519421822e+02 5.0723905257e+02 0.0000000000e+00 0.0000e+00 1.0000e+00
<mgrwt>
<rscale>  4 0.24359657E+03</rscale>
<asrwt>0</asrwt>
<pdfrwt beam="1">  1       21 0.11676625E+00 0.24359657E+03</pdfrwt>
<pdfrwt beam="2">  1       21 0.54764469E-01 0.24359657E+03</pdfrwt>
<totfact> 0.17019936E+03</totfact>
</mgrwt>
</event>
<event>
 6      1 +2.5168241e+02 2.84712100e+02 7.54677100e-03 8.60661900e-02
       21 -1    0    0  503  502 +0.0000000000e+00 +0.0000000000e+00 +4.1041661124e+02 4.1041661124e+02 0.0000000000e+00 0.0000e+00 -1.0000e+00
       21 -1    0    0  501  503 -0.0000000000e+00 -0.0000000000e+00 -2.8655715589e+02 2.8655715589e+02 0.0000000000e+00 0.0000e+00 1.0000e+00
        6  1    1    2  501    0 +2.4060815996e+02 +2.8083540915e+01 +1.4819213147e+02 3.3252199888e+02 1.7300000000e+02 0.0000e+00 -1.0000e+00
       -6  1    1    2    0  505 -2.1963182993e+02 +1.8369653218e+01 -7.6827512830e+01 2.9052891699e+02 1.7300000000e+02 0.0000e+00 1.0000e+00
       21  1    1    2  504  502 -6.5173180059e+00 -2.4711666746e+01 +2.1513426959e+01 3.3406128882e+01 0.0000000000e+00 0.0000e+00 1.0000e+00
       21  1    1    2  505  504 -1.4459012022e+01 -2.1741527386e+01 +3.0981409753e+01 4.0516722375e+01 0.0000000000e+00 0.0000e+00 1.0000e+00
<mgrwt>
<rscale>  4 0.28471213E+03</rscale>
<asrwt>0</asrwt>
<pdfrwt beam="1">  1       21 0.63141017E-01 0.28471213E+03</pdfrwt>
<pdfrwt beam="2">  1       21 0.44085716E-01 0.28471213E+03</pdfrwt>
<totfact> 0.10884485E+04</totfact>
</mgrwt>
</event>
<event>
 6      1 +2.5168241e+02 1.88324500e+02 7.54677100e-03 1.16871900e-01
       21 -1    0    0  504  502 +0.0000000000e+00 +0.0000000000e+00 +2.8452909965e+02 2.8452909965e+02 0.0000000000e+00 0.0000e+00 1.0000e+00
       21 -1    0    0  502  503 -0.0000000000e+00 -0.0000000000e+00 -5.7951159263e+02 5.7951159263e+02 0.0000000000e+00 0.0000e+00 1.0000e+00
        6  1    1    2  501    0 -1.0811205157e+02 +4.9523035198e+01 -3.9717899412e+02 4.4924481086e+02 1.7300000000e+02 0.0000e+00 1.0000e+00
       -6  1    1    2    0  503 -4.2563392723e+01 -2.8634917812e+00 -5.7104629235e+01 1.8710900744e+02 1.7300000000e+02 0.0000e+00 1.0000e+00
       21  1    1    2  504  505 +3.7402248434e+01 -1.1372229576e+01 +1.7590251301e+01 4.2868085265e+01 0.0000000000e+00 0.0000e+00 -1.0000e+00
       21  1    1    2  505  501 +1.1327319586e+02 -3.5287313841e+01 +1.4171087907e+02 1.8481878872e+02 0.0000000000e+00 0.0000e+00 1.0000e+00
<mgrwt>
<rscale>  4 0.18832451E+03</rscale>
<asrwt>0</asrwt>
<pdfrwt beam="1">  1       21 0.43773708E-01 0.18832451E+03</pdfrwt>
<pdfrwt beam="2">  1       21 0.89155628E-01 0.18832451E+03</pdfrwt>
<totfact> 0.54027416E+03</totfact>
</mgrwt>
</event>
<event>
 6      1 +2.5168241e+02 4.23655600e+02 7.54677100e-03 1.11634100e-01
       21 -1    0    0  503  502 +0.0000000000e+00 +0.0000000000e+00 +1.2057731756e+03 1.2057731756e+03 0.0000000000e+00 0.0000e+00 -1.0000e+00
       21 -1    0    0  505  503 -0.0000000000e+00 -0.0000000000e+00 -1.6721783878e+03 1.6721783878e+03 0.0000000000e+00 0.0000e+00 -1.0000e+00
        6  1    1    2  501    0 -6.0823411399e+01 -6.9061651708e+01 -1.1048344872e+01 1.9626529249e+02 1.7300000000e+02 0.0000e+00 1.0000e+00
       -6  1    1    2    0  504 -6.6526112711e+00 -1.6382538167e+02 -4.2676032637e+01 2.4214305003e+02 1.7300000000e+02 0.0000e+00 -1.0000e+00
       21  1    1    2  504  502 +3.3578908229e+01 +2.1775159417e+02 +1.0012096981e+03 1.0251654303e+03 0.0000000000e+00 0.0000e+00 -1.0000e+00
       21  1    1    2  505  501 +3.3897114441e+01 +1.5135439205e+01 -1.4138905328e+03 1.4143777906e+03 0.0000000000e+00 0.0000e+00 -1.0000e+00
<mgrwt>
<rscale>  4 0.42365562E+03</rscale>
<asrwt>0</asrwt>
<pdfrwt beam="1">  1       21 0.18550357E+00 0.42365562E+03</pdfrwt>
<pdfrwt beam="2">  1       21 0.25725821E+00 0.42365562E+03</pdfrwt>
<totfact> 0.75225270E+00</totfact>
</mgrwt>
</event>
<event>
 6      1 +2.5168241e+02 2.53766600e+02 7.54677100e-03 1.11634100e-01
       21 -1    0    0  504  502 +0.0000000000e+00 +0.0000000000e+00 +6.1465097045e+02 6.1465097045e+02 0.0000000000e+00 0.0000e+00 1.0000e+00
       21 -1    0    0  502  503 -0.0000000000e+00 -0.0000000000e+00 -2.7637127700e+03 2.7637127700e+03 0.0000000000e+00 0.0000e+00 1.0000e+00
        6  1    1    2  501    0 -1.4907648557e+02 -9.1421298310e+00 -1.5907071695e+03 1.6070425247e+03 1.7300000000e+02 0.0000e+00 1.0000e+00
       -6  1    1    2    0  503 +2.2394960836e+02 -2.2592099607e+01 -1.0457426093e+03 1.0835914521e+03 1.7300000000e+02 0.0000e+00 1.0000e+00
       21  1    1    2  504  505 -3.8725376795e+01 +2.2314909165e+01 +5.8319130850e+02 5.8490145519e+02 0.0000000000e+00 0.0000e+00 1.0000e+00
       21  1    1    2  505  501 -3.6147745997e+01 +9.4193202736e+00 -9.5803329194e+01 1.0282830846e+02 0.0000000000e+00 0.0000e+00 -1.0000e+00
<mgrwt>
<rscale>  4 0.25376662E+03</rscale>
<asrwt>0</asrwt>
<pdfrwt beam="1">  1       21 0.94561689E-01 0.25376662E+03</pdfrwt>
<pdfrwt beam="2">  1       21 0.42518657E+00 0.25376662E+03</pdfrwt>
<totfact> 0.50246657E+00</totfact>
</mgrwt>
</event>
<event>
 6      1 +2.5168241e+02 2.54911000e+02 7.54677100e-03 1.11910500e-01
       21 -1    0    0  501  502 +0.0000000000e+00 +0.0000000000e+00 +4.9957934757e+02 4.9957934757e+02 0.0000000000e+00 0.0000e+00 1.0000e+00
       21 -1    0    0  504  503 -0.0000000000e+00 -0.0000000000e+00 -8.6857268512e+02 8.6857268512e+02 0.0000000000e+00 0.0000e+00 -1.0000e+00
        6  1    1    2  501    0 -6.5395384484e+01 +1.4173001255e+02 +1.5725124137e+02 2.8110657353e+02 1.7300000000e+02 0.0000e+00 1.0000e+00
       -6  1    1    2    0  503 +1.2837957949e+02 -1.8505525185e+02 +2.0529306246e+02 3.5042974212e+02 1.7300000000e+02 0.0000e+00 1.0000e+00
       21  1    1    2  504  505 -2.8710621794e+01 +2.0263896207e-02 -3.3876151568e+02 3.3997597668e+02 0.0000000000e+00 0.0000e+00 -1.0000e+00
       21  1    1    2  505  502 -3.4273573210e+01 +4.3304975397e+01 -3.9277612570e+02 3.9663974037e+02 0.0000000000e+00 0.0000e+00 -1.0000e+00
<mgrwt>
<rscale>  4 0.25491103E+03</rscale>
<asrwt>0</asrwt>
<pdfrwt beam="1">  1       21 0.76858362E-01 0.25491103E+03</pdfrwt>
<pdfrwt beam="2">  1       21 0.13362657E+00 0.25491103E+03</pdfrwt>
<totfact> 0.57122221E+02</totfact>
</mgrwt>
</event>
<event>
 6      1 +2.5168241e+02 1.96599100e+02 7.54677100e-03 1.16820100e-01
       21 -1    0    0  504  502 +0.0000000000e+00 +0.0000000000e+00 +2.1467898522e+02 2.1467898522e+02 0.0000000000e+00 0.0000e+00 1.0000e+00
       21 -1    0    0  501  503 -0.0000000000e+00 -0.0000000000e+00 -2.8144980308e+02 2.8144980308e+02 0.0000000000e+00 0.0000e+00 1.0000e+00
        6  1    1    2  501    0 +8.4443691168e+01 -3.8961451619e+01 -4.6067674529e+00 1.9646616502e+02 1.7300000000e+02 0.0000e+00 1.0000e+00
       -6  1    1    2    0  505 -9.3198375317e+01 +2.6763789187e+01 -1.8645418070e+01 1.9919560534e+02 1.7300000000e+02 0.0000e+00 1.0000e+00
       21  1    1    2  504  503 +2.7355564650e+01 +4.0774963996e+00 -6.5166469908e+01 7.0792808211e+01 0.0000000000e+00 0.0000e+00 -1.0000e+00
       21  1    1    2  505  502 -1.8600880501e+01 +8.1201660324e+00 +2.1647837563e+01 2.9674209728e+01 0.0000000000e+00 0.0000e+00 1.0000e+00
<mgrwt>
<rscale>  4 0.19659913E+03</rscale>
<asrwt>0</asrwt>
<pdfrwt beam="1">  1       21 0.33027536E-01 0.19659913E+03</pdfrwt>
<pdfrwt beam="2">  1       21 0.43299969E-01 0.19659913E+03</pdfrwt>
<totfact> 0.45167855E+04</totfact>
</mgrwt>
</event>
<event>
 6      1 +2.5168241e+02 1.79345700e+02 7.54677100e-03 1.11634100e-01
       21 -1    0    0  504  502 +0.0000000000e+00 +0.0000000000e+00 +3.7031829543e+02 3.7031829543e+02 0.0000000000e+00 0.0000e+00 1.0000e+00
       21 -1    0    0  505  503 -0.0000000000e+00 -0.0000000000e+00 -2.4383199587e+02 2.4383199587e+02 0.0000000000e+00 0.0000e+00 1.0000e+00
        6  1    1    2  501    0 +3.1569736384e+01 +2.4779742286e+01 +1.6930063594e+02 2.4536175173e+02 1.7300000000e+02 0.0000e+00 1.0000e+00
       -6  1    1    2    0  502 -3.1237743783e+01 -5.0667463573e+01 +9.5848400174e+01 2.0654032129e+02 1.7300000000e+02 0.0000e+00 1.0000e+00
       21  1    1    2  504  503 -2.5611723007e+01 +1.7355800019e+01 -1.2621250070e+01 3.3413771159e+01 0.0000000000e+00 0.0000e+00 1.0000e+00
       21  1    1    2  505  501 +2.5279730407e+01 +8.5319212673e+00 -1.2604148649e+02 1.2883444712e+02 0.0000000000e+00 0.0000e+00 1.0000e+00
<mgrwt>
<rscale>  4 0.17934566E+03</rscale>
<asrwt>0</asrwt>
<pdfrwt beam="1">  1       21 0.56972045E-01 0.17934566E+03</pdfrwt>
<pdfrwt beam="2">  1       21 0.37512615E-01 0.17934566E+03</pdfrwt>
<totfact> 0.19996696E+04</totfact>
</mgrwt>
</event>
<event>
 6      1 +2.5168241e+02 1.82454100e+02 7.54677100e-03 1.16820100e-01
       21 -1    0    0  505  502 +0.0000000000e+00 +0.0000000000e+00 +4.2570562689e+01 4.2570562689e+01 0.0000000000e+00 0.0000e+00 -1.0000e+00
       21 -1    0    0  501  503 -0.0000000000e+00 -0.0000000000e+00 -1.4372699046e+03 1.4372699046e+03 0.0000000000e+00 0.0000e+00 -1.0000e+00
        6  1    1    2  501    0 -7.1764850004e+01 +6.2956552552e+01 -5.1704749231e+02 5.5351678430e+02 1.7300000000e+02 0.0000e+00 -1.0000e+00
       -6  1    1    2    0  504 +1.8710374014e+01 -6.4513468644e+00 -6.0580927759e+02 6.3033767045e+02 1.7300000000e+02 0.0000e+00 1.0000e+00
       21  1    1    2  504  502 +4.0598840619e+01 -3.7064704634e+01 -2.6673288247e+02 2.7233892263e+02 0.0000000000e+00 0.0000e+00 -1.0000e+00
       21  1    1    2  505  503 +1.2455635371e+01 -1.9440501053e+01 -5.1096895436e+00 2.3647089904e+01 0.0000000000e+00 0.0000e+00 -1.0000e+00
<mgrwt>
<rscale>  4 0.18245405E+03</rscale>
<asrwt>0</asrwt>
<pdfrwt beam="1">  1       21 0.65493177E-02 0.18245405E+03</pdfrwt>
<pdfrwt beam="2">  1       21 0.22111843E+00 0.18245405E+03</pdfrwt>
<totfact> 0.16943633E+04</totfact>
</mgrwt>
</event>
<event>
 6      1 +2.5168241e+02 4.84702000e+02 7.54677100e-03 1.11634100e-01
       21 -1    0    0  504  502 +0.0000000000e+00 +0.0000000000e+00 +7.7022093521e+02 7.7022093521e+02 0.0000000000e+00 0.0000e+00 1.0000e+00
       21 -1    0    0  505  503 -0.0000000000e+00 -0.0000000000e+00 -5.7114970347e+02 5.7114970347e+02 0.0000000000e+00 0.0000e+00 1.0000e+00
        6  1    1    2  501    0 -9.1021723784e+01 -9.4814696710e+01 +2.4246406701e+02 3.2556505449e+02 1.7300000000e+02 0.0000e+00 1.0000e+00
       -6  1    1    2    0  502 +4.8079180744e+02 +2.0607819193e+02 -1.3471516519e+02 5.6719146593e+02 1.7300000000e+02 0.0000e+00 1.0000e+00
       21  1    1    2  504  503 -3.3523721536e+01 +2.8580158600e+01 +4.5229018213e+01 6.3137385595e+01 0.0000000000e+00 0.0000e+00 -1.0000e+00
       21  1    1    2  505  501 -3.5624636212e+02 -1.3984365382e+02 +4.6093311703e+01 3.8547673266e+02 0.0000000000e+00 0.0000e+00 1.0000e+00
<mgrwt>
<rscale>  4 0.39720248E+03</rscale>
<asrwt>0</asrwt>
<pdfrwt beam="1">  1       21 0.11849553E+00 0.48470200E+03</pdfrwt>
<pdfrwt beam="2">  1       21 0.87869185E-01 0.48470200E+03</pdfrwt>
<totfact> 0.49846335E+02</totfact>
</mgrwt>
</event>
<event>
 6      1 +2.5168241e+02 2.07892500e+02 7.54677100e-03 1.16871900e-01
       21 -1    0    0  504  502 +0.0000000000e+00 +0.0000000000e+00 +8.6887382011e+02 8.6887382011e+02 0.0000000000e+00 0.0000e+00 1.0000e+00
       21 -1    0    0  502  503 -0.0000000000e+00 -0.0000000000e+00 -1.4715864454e+02 1.4715864454e+02 0.0000000000e+00 0.0000e+00 -1.0000e+00
        6  1    1    2  501    0 +9.3741650113e+01 -1.1586796809e+02 +1.2836552656e+02 2.6195341457e+02 1.7300000000e+02 0.0000e+00 -1.0000e+00
       -6  1    1    2    0  503 +1.0161009422e+02 +1.1237834172e+02 +1.8310361633e+02 2.9395482178e+02 1.7300000000e+02 0.0000e+00 -1.0000e+00
       21  1    1    2  504  505 -2.9443500526e+01 -2.4933959394e+01 +9.9472112499e+01 1.0669265776e+02 0.0000000000e+00 0.0000e+00 1.0000e+00
       21  1    1    2  505  501 -1.6590824381e+02 +2.8423585767e+01 +3.1077392018e+02 3.5343157054e+02 0.0000000000e+00 0.0000e+00 1.0000e+00
<mgrwt>
<rscale>  4 0.20766087E+03</rscale>
<asrwt>0</asrwt>
<pdfrwt beam="1">  1       21 0.13367289E+00 0.20789254E+03</pdfrwt>
<pdfrwt beam="2">  1       21 0.22639792E-01 0.20789254E+03</pdfrwt>
<totfact> 0.72806646E+03</totfact>
</mgrwt>
</event>
<event>
 6      1 +2.5168241e+02 2.05221600e+02 7.54677100e-03 1.11634100e-01
       21 -1    0    0  503  502 +0.0000000000e+00 +0.0000000000e+00 +3.9702543523e+02 3.9702543523e+02 0.0000000000e+00 0.0000e+00 1.0000e+00
       21 -1    0    0  505  503 -0.0000000000e+00 -0.0000000000e+00 -2.6228359925e+02 2.6228359925e+02 0.0000000000e+00 0.0000e+00 -1.0000e+00
        6  1    1    2  501    0 +9.0534945266e+01 -1.3391810254e+02 +7.6713283321e+01 2.4888664556e+02 1.7300000000e+02 0.0000e+00 1.0000e+00
       -6  1    1    2    0  504 -8.7356595278e+01 +2.5818203041e+01 +1.7487244977e+00 1.9552445470e+02 1.7300000000e+02 0.0000e+00 1.0000e+00
       21  1    1    2  504  502 +6.5712268129e+00 +1.2604414199e+02 +1.0364522296e+02 1.6331760161e+02 0.0000000000e+00 0.0000e+00 1.0000e+00
       21  1    1    2  505  501 -9.7495768010e+00 -1.7944242492e+01 -4.7365394808e+01 5.1580332606e+01 0.0000000000e+00 0.0000e+00 -1.0000e+00
<mgrwt>
<rscale>  4 0.20522165E+03</rscale>
<asrwt>0</asrwt>
<pdfrwt beam="1">  1       21 0.61080837E-01 0.20522165E+03</pdfrwt>
<pdfrwt beam="2">  1       21 0.40351323E-01 0.20522165E+03</pdfrwt>
<totfact> 0.14638963E+04</totfact>
</mgrwt>
</event>
<event>
 6      1 +2.5168241e+02 2.35759100e+02 7.54677100e-03 1.11634100e-01
       21 -1    0    0  504  502 +0.0000000000e+00 +0.0000000000e+00 +9.6140584294e+02 9.6140584294e+02 0.0000000000e+00 0.0000e+00 -1.0000e+00
       21 -1    0    0  505  503 -0.0000000000e+00 -0.0000000000e+00 -4.7921722773e+02 4.7921722773e+02 0.0000000000e+00 0.0000e+00 1.0000e+00
        6  1    1    2  501    0 -1.5719956515e+02 +4.3605885871e+01 +1.2518613673e+02 2.6872615317e+02 1.7300000000e+02 0.0000e+00 1.0000e+00
       -6  1    1    2    0  502 +1.4393265893e+02 +6.2065564789e+00 +5.4694351061e+02 5.9146541357e+02 1.7300000000e+02 0.0000e+00 -1.0000e+00
       21  1    1    2  504  503 +2.6915767238e+01 +1.4559013965e+01 +1.9120941668e+02 1.9364262042e+02 0.0000000000e+00 0.0000e+00 1.0000e+00
       21  1    1    2  505  501 -1.3648861014e+01 -6.4371456315e+01 -3.8115044880e+02 3.8678888352e+02 0.0000000000e+00 0.0000e+00 1.0000e+00
<mgrwt>
<rscale>  4 0.23575912E+03</rscale>
<asrwt>0</asrwt>
<pdfrwt beam="1">  1       21 0.14790859E+00 0.23575912E+03</pdfrwt>
<pdfrwt beam="2">  1       21 0.73725728E-01 0.23575912E+03</pdfrwt>
<totfact> 0.48960448E+02</totfact>
</mgrwt>
</event>
<event>
 6      1 +2.5168241e+02 5.07965300e+02 7.54677100e-03 1.17389200e-01
       21 -1    0    0  503  502 +0.0000000000e+00 +0.0000000000e+00 +2.8202271200e+02 2.8202271200e+02 0.0000000000e+00 0.0000e+00 1.0000e+00
       21 -1    0    0  501  503 -0.0000000000e+00 -0.0000000000e+00 -1.6428786873e+03 1.6428786873e+03 0.0000000000e+00 0.0000e+00 -1.0000e+00
        6  1    1    2  501    0 -4.7403200030e+02 +1.2980500990e+02 -3.2040329811e+02 6.1167225811e+02 1.7300000000e+02 0.0000e+00 1.0000e+00
       -6  1    1    2    0  505 +4.7757639891e+02 +5.7660127930e+01 -4.1655344787e+02 6.5943133235e+02 1.7300000000e+02 0.0000e+00 1.0000e+00
       21  1    1    2  504  502 +1.1290448152e+01 -1.7369516848e+02 -5.3417336370e+02 5.6181729081e+02 0.0000000000e+00 0.0000e+00 -1.0000e+00
       21  1    1    2  505  504 -1.4834846766e+01 -1.3769969357e+01 -8.9725865654e+01 9.1980518057e+01 0.0000000000e+00 0.0000e+00 1.0000e+00
<mgrwt>
<rscale>  4 0.50796532E+03</rscale>
<asrwt>0</asrwt>
<pdfrwt beam="1">  1       21 0.43388110E-01 0.50796532E+03</pdfrwt>
<pdfrwt beam="2">  1       21 0.25275057E+00 0.50796532E+03</pdfrwt>
<totfact> 0.25374816E+02</totfact>
</mgrwt>
</event>
<event>
 6      1 +2.5168241e+02 2.17157400e+02 7.54677100e-03 1.11910500e-01
       21 -1    0    0  501  502 +0.0000000000e+00 +0.0000000000e+00 +1.3890464002e+03 1.3890464002e+03 0.0000000000e+00 0.0000e+00 1.0000e+00
       21 -1    0    0  504  503 -0.0000000000e+00 -0.0000000000e+00 -2.6291951498e+02 2.6291951498e+02 0.0000000000e+00 0.0000e+00 1.0000e+00
        6  1    1    2  501    0 +3.1472330763e+01 +9.8147481531e+01 +3.8033594729e+02 4.3035783778e+02 1.7300000000e+02 0.0000e+00 1.0000e+00
       -6  1    1    2    0  503 -1.6161622198e+02 -5.0985929072e+01 +9.2309437773e+02 9.5433306469e+02 1.7300000000e+02 0.0000e+00 1.0000e+00
       21  1    1    2  504  505 -3.0876693504e+01 +9.3005784166e-01 -3.8172103983e+01 4.9105445033e+01 0.0000000000e+00 0.0000e+00 1.0000e+00
       21  1    1    2  505  502 +1.6102058473e+02 -4.8091610301e+01 -1.3913133578e+02 2.1816956772e+02 0.0000000000e+00 0.0000e+00 1.0000e+00
<mgrwt>
<rscale>  4 0.21715745E+03</rscale>
<asrwt>0</asrwt>
<pdfrwt beam="1">  1       21 0.21369944E+00 0.21715745E+03</pdfrwt>
<pdfrwt beam="2">  1       21 0.40449157E-01 0.21715745E+03</pdfrwt>
<totfact> 0.62982259E+02</totfact>
</mgrwt>
</event>
<event>
 6      1 +2.5168241e+02 2.81529400e+02 7.54677100e-03 1.08788200e-01
       21 -1    0    0  503  502 +0.0000000000e+00 +0.0000000000e+00 +4.3564555447e+02 4.3564555447e+02 0.0000000000e+00 0.0000e+00 1.0000e+00
       21 -1    0    0  501  503 -0.0000000000e+00 -0.0000000000e+00 -2.2000074271e+03 2.2000074271e+03 0.0000000000e+00 0.0000e+00 -1.0000e+00
        6  1    1    2  501    0 +2.0827430642e+01 -2.1976387535e+02 +3.3214200308e+02 4.3471514004e+02 1.7300000000e+02 0.0000e+00 1.0000e+00
       -6  1    1    2    0  505 +5.6693298923e+01 -4.7082404738e+01 -1.7612286281e+02 2.5764150633e+02 1.7300000000e+02 0.0000e+00 -1.0000e+00
       21  1    1    2  504  502 -6.7639896941e+01 +1.3378007528e+02 -1.3070656698e+03 1.3156340408e+03 0.0000000000e+00 0.0000e+00 -1.0000e+00
       21  1    1    2  505  504 -9.8808326234e+00 +1.3306620481e+02 -6.1331534307e+02 6.2766229436e+02 0.0000000000e+00 0.0000e+00 -1.0000e+00
<mgrwt>
<rscale>  4 0.25451109E+03</rscale>
<asrwt>0</asrwt>
<pdfrwt beam="1">  1       21 0.67022392E-01 0.28152944E+03</pdfrwt>
<pdfrwt beam="2">  1       21 0.33846269E+00 0.28152944E+03</pdfrwt>
<totfact> 0.36419166E+01</totfact>
</mgrwt>
</event>
<event>
 6      1 +2.5168241e+02 1.94905900e+02 7.54677100e-03 1.07279400e-01
       21 -1    0    0  504  502 +0.0000000000e+00 +0.0000000000e+00 +1.7199299162e+03 1.7199299162e+03 0.0000000000e+00 0.0000e+00 -1.0000e+00
       21 -1    0    0  501  503 -0.0000000000e+00 -0.0000000000e+00 -5.8232483057e+02 5.8232483057e+02 0.0000000000e+00 0.0000e+00 1.0000e+00
        6  1    1    2  501    0 +1.4139370838e+02 +4.2336323197e+01 -3.7513546277e+02 4.3868002058e+02 1.7300000000e+02 0.0000e+00 1.0000e+00
       -6  1    1    2    0  502 +2.4551681475e+00 +4.8055318610e+01 -8.8316549958e+01 2.0011035579e+02 1.7300000000e+02 0.0000e+00 1.0000e+00
       21  1    1    2  504  505 +1.7175027158e+01 -8.3333254509e+01 +1.4139501761e+03 1.4165078586e+03 0.0000000000e+00 0.0000e+00 -1.0000e+00
       21  1    1    2  505  503 -1.6102390368e+02 -7.0583872983e+00 +1.8710692230e+02 2.4695651188e+02 0.0000000000e+00 0.0000e+00 1.0000e+00
<mgrwt>
<rscale>  4 0.19490589E+03</rscale>
<asrwt>0</asrwt>
<pdfrwt beam="1">  1       21 0.26460460E+00 0.19490589E+03</pdfrwt>
<pdfrwt beam="2">  1       21 0.89588436E-01 0.19490589E+03</pdfrwt>
<totfact> 0.57795323E+01</totfact>
</mgrwt>
</event>
<event>
 6      1 +2.5168241e+02 1.98974000e+02 7.54677100e-03 1.17389200e-01
       21 -1    0    0  503  502 +0.0000000000e+00 +0.0000000000e+00 +9.7092197550e+01 9.7092197550e+01 0.0000000000e+00 0.0000e+00 1.0000e+00
       21 -1    0    0  501  503 -0.0000000000e+00 -0.0000000000e+00 -7.7419284962e+02 7.7419284962e+02 0.0000000000e+00 0.0000e+00 1.0000e+00
        6  1    1    2  501    0 -9.1237298010e+01 +6.3369836067e+01 -3.1225823957e+02 3.7386386406e+02 1.7300000000e+02 0.0000e+00 -1.0000e+00
       -6  1    1    2    0  505 -1.2420884428e+01 -1.1376857827e+02 -1.6428335889e+02 2.6460459138e+02 1.7300000000e+02 0.0000e+00 1.0000e+00
       21  1    1    2  504  502 +4.0245589780e+01 +2.8985904211e+01 -1.0529249827e+02 1.1638900434e+02 0.0000000000e+00 0.0000e+00 1.0000e+00
       21  1    1    2  505  504 +6.3412592658e+01 +2.1412837992e+01 -9.5266555333e+01 1.1642758738e+02 0.0000000000e+00 0.0000e+00 1.0000e+00
<mgrwt>
<rscale>  4 0.19897404E+03</rscale>
<asrwt>0</asrwt>
<pdfrwt beam="1">  1       21 0.14937261E-01 0.19897404E+03</pdfrwt>
<pdfrwt beam="2">  1       21 0.11910659E+00 0.19897404E+03</pdfrwt>
<totfact> 0.21180548E+04</totfact>
</mgrwt>
</event>
<event>
 6      1 +2.5168241e+02 2.84596900e+02 7.54677100e-03 1.16820100e-01
       21 -1    0    0  505  502 +0.0000000000e+00 +0.0000000000e+00 +6.9345354344e+02 6.9345354344e+02 0.0000000000e+00 0.0000e+00 -1.0000e+00
       21 -1    0    0  504  503 -0.0000000000e+00 -0.0000000000e+00 -2.4026253890e+02 2.4026253890e+02 0.0000000000e+00 0.0000e+00 1.0000e+00
        6  1    1    2  501    0 -1.3072109415e+02 -1.5783210208e+02 +3.5118367800e+02 4.4188002059e+02 1.7300000000e+02 0.0000e+00 -1.0000e+00
       -6  1    1    2    0  503 +1.9264431551e+02 +1.3285462989e+02 -3.8129268438e+01 2.9350472925e+02 1.7300000000e+02 0.0000e+00 1.0000e+00
       21  1    1    2  504  502 -3.1740611080e+01 +3.9773659926e+01 -3.3149306758e+00 5.0994109278e+01 0.0000000000e+00 0.0000e+00 1.0000e+00
       21  1    1    2  505  501 -3.0182610280e+01 -1.4796187738e+01 +1.4345152565e+02 1.4733722322e+02 0.0000000000e+00 0.0000e+00 1.0000e+00
<mgrwt>
<rscale>  4 0.28459691E+03</rscale>
<asrwt>0</asrwt>
<pdfrwt beam="1">  1       21 0.10668516E+00 0.28459691E+03</pdfrwt>
<pdfrwt beam="2">  1       21 0.36963468E-01 0.28459691E+03</pdfrwt>
<totfact> 0.46649713E+03</totfact>
</mgrwt>
</event>
<event>
 6      1 +2.5168241e+02 1.79184500e+02 7.54677100e-03 1.16820100e-01
       21 -1    0    0  505  502 +0.0000000000e+00 +0.0000000000e+00 +1.0206218719e+03 1.0206218719e+03 0.0000000000e+00 0.0000e+00 -1.0000e+00
       21 -1    0    0  501  503 -0.0000000000e+00 -0.0000000000e+00 -2.6863835752e+02 2.6863835752e+02 0.0000000000e+00 0.0000e+00 -1.0000e+00
        6  1    1    2  501    0 +6.5308970156e+00 -2.8460398604e+01 +4.8243539282e+00 1.7551330803e+02 1.7300000000e+02 0.0000e+00 -1.0000e+00
       -6  1    1    2    0  502 +8.6018112157e+01 -1.0706549841e+00 -6.5057702088e+01 2.0386703147e+02 1.7300000000e+02 0.0000e+00 -1.0000e+00
       21  1    1    2  504  503 +1.7236449910e+00 -2.2874387179e+01 -4.2547434539e+01 4.8337280920e+01 0.0000000000e+00 0.0000e+00 -1.0000e+00
       21  1    1    2  505  504 -9.4272654164e+01 +5.2405440767e+01 +8.5476429712e+02 8.6154260903e+02 0.0000000000e+00 0.0000e+00 -1.0000e+00
<mgrwt>
<rscale>  4 0.17918448E+03</rscale>
<asrwt>0</asrwt>
<pdfrwt beam="1">  1       21 0.15701875E+00 0.17918448E+03</pdfrwt>
<pdfrwt beam="2">  1       21 0.41328979E-01 0.17918448E+03</pdfrwt>
<totfact> 0.15135444E+03</totfact>
</mgrwt>
</event>
<event>
 6      1 +2.5168241e+02 1.84883100e+02 7.54677100e-03 1.14278100e-01
       21 -1    0    0  501  502 +0.0000000000e+00 +0.0000000000e+00 +1.2138471220e+03 1.2138471220e+03 0.0000000000e+00 0.0000e+00 1.0000e+00
       21 -1    0    0  504  503 -0.0000000000e+00 -0.0000000000e+00 -7.6964937483e+02 7.6964937483e+02 0.0000000000e+00 0.0000e+00 1.0000e+00
        6  1    1    2  501    0 +2.5825521917e+01 +2.2308344114e+01 -4.3222188343e+02 4.6680764380e+02 1.7300000000e+02 0.0000e+00 1.0000e+00
       -6  1    1    2    0  505 -9.3936549517e+01 -1.0276984583e+02 -2.5988237746e+02 3.4183850963e+02 1.7300000000e+02 0.0000e+00 1.0000e+00
       21  1    1    2  504  502 -6.7072726827e+01 +1.9838088436e+01 +8.4639533117e+02 8.4928049375e+02 0.0000000000e+00 0.0000e+00 1.0000e+00
       21  1    1    2  505  503 +1.3518375443e+02 +6.0623413285e+01 +2.8990667685e+02 3.2556984962e+02 0.0000000000e+00 0.0000e+00 1.0000e+00
<mgrwt>
<rscale>  4 0.18488310E+03</rscale>
<asrwt>0</asrwt>
<pdfrwt beam="1">  1       21 0.18674571E+00 0.18488310E+03</pdfrwt>
<pdfrwt beam="2">  1       21 0.11840760E+00 0.18488310E+03</pdfrwt>
<totfact> 0.90509088E+01</totfact>
</mgrwt>
</event>
<event>
 6      1 +2.5168241e+02 2.37571400e+02 7.54677100e-03 1.16820100e-01
       21 -1    0    0  505  502 +0.0000000000e+00 +0.0000000000e+00 +7.4790851670e+02 7.4790851670e+02 0.0000000000e+00 0.0000e+00 -1.0000e+00
       21 -1    0    0  501  503 -0.0000000000e+00 -0.0000000000e+00 -3.1593434640e+02 3.1593434640e+02 0.0000000000e+00 0.0000e+00 -1.0000e+00
        6  1    1    2  501    0 +5.5550240848e+01 -1.8393016643e+02 -5.4445075175e+01 2.6421468845e+02 1.7300000000e+02 0.0000e+00 -1.0000e+00
       -6  1    1    2    0  502 +4.7851753468e+00 +1.4203164851e+02 +2.0621491578e+02 3.0438376858e+02 1.7300000000e+02 0.0000e+00 -1.0000e+00
       21  1    1    2  504  503 +1.6618861939e+01 +3.4962792852e+01 -1.0001930989e+02 1.0724945598e+02 0.0000000000e+00 0.0000e+00 -1.0000e+00
       21  1    1    2  505  504 -7.6954278134e+01 +6.9357250585e+00 +3.8022363958e+02 3.8799495010e+02 0.0000000000e+00 0.0000e+00 -1.0000e+00
<mgrwt>
<rscale>  4 0.23757145E+03</rscale>
<asrwt>0</asrwt>
<pdfrwt beam="1">  1       21 0.11506285E+00 0.23757145E+03</pdfrwt>
<pdfrwt beam="2">  1       21 0.48605284E-01 0.23757145E+03</pdfrwt>
<totfact> 0.22791275E+03</totfact>
</mgrwt>
</event>
<event>
 6      1 +2.5168241e+02 2.14672100e+02 7.54677100e-03 1.16820100e-01
       21 -1    0    0  501  502 +0.0000000000e+00 +0.0000000000e+00 +1.2123088921e+02 1.2123088921e+02 0.0000000000e+00 0.0000e+00 -1.0000e+00
       21 -1    0    0  504  503 -0.0000000000e+00 -0.0000000000e+00 -8.0331948522e+02 8.0331948522e+02 0.0000000000e+00 0.0000e+00 -1.0000e+00
        6  1    1    2  501    0 +5.8846964280e+00 +1.4958563728e+02 -9.3035263986e+01 2.4697176535e+02 1.7300000000e+02 0.0000e+00 -1.0000e+00
       -6  1    1    2    0  503 -3.8676162510e+01 -1.0487200623e+02 -3.2111398836e+02 3.8149335087e+02 1.7300000000e+02 0.0000e+00 -1.0000e+00
       21  1    1    2  504  505 +1.8674923063e+01 -1.8910615515e+01 -2.6521930385e+02 2.6654763789e+02 0.0000000000e+00 0.0000e+00 -1.0000e+00
       21  1    1    2  505  502 +1.4116543019e+01 -2.5803015534e+01 -2.7200398058e+00 2.9537620317e+01 0.0000000000e+00 0.0000e+00 1.0000e+00
<mgrwt>
<rscale>  4 0.21467206E+03</rscale>
<asrwt>0</asrwt>
<pdfrwt beam="1">  1       21 0.18650907E-01 0.21467206E+03</pdfrwt>
<pdfrwt beam="2">  1       21 0.12358761E+00 0.21467206E+03</pdfrwt>
<totfact> 0.12709440E+04</totfact>
</mgrwt>
</event>
<event>
 6      1 +2.5168241e+02 3.12601400e+02 7.54677100e-03 1.07279400e-01
       21 -1    0    0  504  502 +0.0000000000e+00 +0.0000000000e+00 +7.4718294941e+02 7.4718294941e+02 0.0000000000e+00 0.0000e+00 -1.0000e+00
       21 -1    0    0  501  503 -0.0000000000e+00 -0.0000000000e+00 -5.4226620917e+02 5.4226620917e+02 0.0000000000e+00 0.0000e+00 1.0000e+00
        6  1    1    2  501    0 -1.2634363284e+02 +8.2867517170e+00 -1.2083136809e+02 2.4609064047e+02 1.7300000000e+02 0.0000e+00 -1.0000e+00
       -6  1    1    2    0  502 -1.4681340357e+01 +2.1008649245e+02 -2.5137519210e+02 3.7076996004e+02 1.7300000000e+02 0.0000e+00 1.0000e+00
       21  1    1    2  504  505 +1.7796849710e+02 -2.0184839240e+02 +5.7155517840e+02 6.3173640186e+02 0.0000000000e+00 0.0000e+00 -1.0000e+00
       21  1    1    2  505  503 -3.6943523903e+01 -1.6524851762e+01 +5.5681220258e+00 4.0852156210e+01 0.0000000000e+00 0.0000e+00 -1.0000e+00
<mgrwt>
<rscale>  4 0.28699971E+03</rscale>
<asrwt>0</asrwt>
<pdfrwt beam="1">  1       21 0.11495122E+00 0.31260142E+03</pdfrwt>
<pdfrwt beam="2">  1       21 0.83425570E-01 0.31260142E+03</pdfrwt>
<totfact> 0.66378620E+02</totfact>
</mgrwt>
</event>
<event>
 6      1 +2.5168241e+02 1.76265200e+02 7.54677100e-03 1.11910500e-01
       21 -1    0    0  501  502 +0.0000000000e+00 +0.0000000000e+00 +2.5484164895e+03 2.5484164895e+03 0.0000000000e+00 0.0000e+00 -1.0000e+00
       21 -1    0    0  505  503 -0.0000000000e+00 -0.0000000000e+00 -1.6101528941e+02 1.6101528941e+02 0.0000000000e+00 0.0000e+00 -1.0000e+00
        6  1    1    2  501    0 +2.9512798900e+01 -1.3440669994e+01 +1.9965825845e+03 2.0043259898e+03 1.7300000000e+02 0.0000e+00 -1.0000e+00
       -6  1    1    2    0  504 -2.3134077088e+00 +6.5417955206e+01 +5.1452472466e+02 5.4676279409e+02 1.7300000000e+02 0.0000e+00 1.0000e+00
       21  1    1    2  504  503 -4.3306943593e+01 -1.6944225635e+00 -3.7801009992e+01 5.7508945283e+01 0.0000000000e+00 0.0000e+00 -1.0000e+00
       21  1    1    2  505  502 +1.6107552402e+01 -5.0282862649e+01 -8.5905099090e+01 1.0083404966e+02 0.0000000000e+00 0.0000e+00 -1.0000e+00
<mgrwt>
<rscale>  4 0.17626518E+03</rscale>
<asrwt>0</asrwt>
<pdfrwt beam="1">  1       21 0.39206405E+00 0.17626518E+03</pdfrwt>
<pdfrwt beam="2">  1       21 0.24771585E-01 0.17626518E+03</pdfrwt>
<totfact> 0.15505447E+02</totfact>
</mgrwt>
</event>
<event>
 6      1 +2.5168241e+02 2.00003000e+02 7.54677100e-03 1.09588500e-01
       21 -1    0    0  505  502 +0.0000000000e+00 +0.0000000000e+00 +1.9200047191e+02 1.9200047191e+02 0.0000000000e+00 0.0000e+00 -1.0000e+00
       21 -1    0    0  502  503 -0.0000000000e+00 -0.0000000000e+00 -6.3203796030e+02 6.3203796030e+02 0.0000000000e+00 0.0000e+00 -1.0000e+00
        6  1    1    2  501    0 -8.6290437223e+01 -6.0609790533e+01 +7.5302634619e+01 2.1614595311e+02 1.7300000000e+02 0.0000e+00 -1.0000e+00
       -6  1    1    2    0  504 +1.0805287525e+02 -3.6495550517e+01 -3.2953515474e+02 3.8926824590e+02 1.7300000000e+02 0.0000e+00 -1.0000e+00
       21  1    1    2  504  503 -3.1046796281e+01 +2.5423001723e+01 -4.4603153592e+01 5.9997282324e+01 0.0000000000e+00 0.0000e+00 -1.0000e+00
       21  1    1    2  505  501 +9.2843582579e+00 +7.1682339327e+01 -1.4120181468e+02 1.5862695089e+02 0.0000000000e+00 0.0000e+00 -1.0000e+00
<mgrwt>
<rscale>  4 0.20000300E+03</rscale>
<asrwt>0</asrwt>
<pdfrwt beam="1">  1       21 0.29538535E-01 0.20000300E+03</pdfrwt>
<pdfrwt beam="2">  1       21 0.97236607E-01 0.20000300E+03</pdfrwt>
<totfact> 0.95829346E+03</totfact>
</mgrwt>
</event>
<event>
 6      1 +2.5168241e+02 1.74274500e+02 7.54677100e-03 1.11634100e-01
       21 -1    0    0  505  502 +0.0000000000e+00 +0.0000000000e+00 +4.4439194073e+02 4.4439194073e+02 0.0000000000e+00 0.0000e+00 -1.0000e+00
       21 -1    0    0  504  503 -0.0000000000e+00 -0.0000000000e+00 -1.5449412693e+02 1.5449412693e+02 0.0000000000e+00 0.0000e+00 -1.0000e+00
        6  1    1    2  501    0 -1.5986323814e+01 +1.0934689505e+01 +1.7610676407e+02 2.4762415539e+02 1.7300000000e+02 0.0000e+00 1.0000e+00
       -6  1    1    2    0  503 -1.4830404254e+01 +3.0707742965e+01 -3.0372196841e+01 1.7892561781e+02 1.7300000000e+02 0.0000e+00 1.0000e+00
       21  1    1    2  504  502 +2.9397367128e+01 -6.4384215038e+01 +1.1839935833e+02 1.3794180075e+02 0.0000000000e+00 0.0000e+00 -1.0000e+00
       21  1    1    2  505  501 +1.4193609402e+00 +2.2741782569e+01 +2.5763888241e+01 3.4394493704e+01 0.0000000000e+00 0.0000e+00 1.0000e+00
<mgrwt>
<rscale>  4 0.17427450E+03</rscale>
<asrwt>0</asrwt>
<pdfrwt beam="1">  1       21 0.68367990E-01 0.17427450E+03</pdfrwt>
<pdfrwt beam="2">  1       21 0.23768327E-01 0.17427450E+03</pdfrwt>
<totfact> 0.32870769E+04</totfact>
</mgrwt>
</event>
<event>
 6      1 +2.5168241e+02 2.15646200e+02 7.54677100e-03 1.07852700e-01
       21 -1    0    0  505  502 +0.0000000000e+00 +0.0000000000e+00 +6.5225566371e+01 6.5225566371e+01 0.0000000000e+00 0.0000e+00 -1.0000e+00
       21 -1    0    0  502  503 -0.0000000000e+00 -0.0000000000e+00 -1.5727506847e+03 1.5727506847e+03 0.0000000000e+00 0.0000e+00 -1.0000e+00
        6  1    1    2  501    0 -6.9903950212e+01 -9.3210005783e+01 -7.0913506017e+02 7.3917264628e+02 1.7300000000e+02 0.0000e+00 -1.0000e+00
       -6  1    1    2    0  503 -1.7806425530e+01 +1.6712955643e+02 -6.9029761894e+02 7.3122442529e+02 1.7300000000e+02 0.0000e+00 -1.0000e+00
       21  1    1    2  504  501 +1.1192244592e+01 -3.1387671999e+01 -5.7525163616e+01 6.6480047696e+01 0.0000000000e+00 0.0000e+00 1.0000e+00
       21  1    1    2  505  504 +7.6518131150e+01 -4.2531878645e+01 -5.0567275636e+01 1.0109913185e+02 0.0000000000e+00 0.0000e+00 -1.0000e+00
<mgrwt>
<rscale>  4 0.21564617E+03</rscale>
<asrwt>0</asrwt>
<pdfrwt beam="1">  1       21 0.10034702E-01 0.21564617E+03</pdfrwt>
<pdfrwt beam="2">  1       21 0.24196165E+00 0.21564617E+03</pdfrwt>
<totfact> 0.58512365E+03</totfact>
</mgrwt>
</event>
<event>
 6      1 +2.5168241e+02 1.80980300e+02 7.54677100e-03 1.11476600e-01
       21 -1    0    0  505  502 +0.0000000000e+00 +0.0000000000e+00 +5.0577553999e+02 5.0577553999e+02 0.0000000000e+00 0.0000e+00 1.0000e+00
       21 -1    0    0  504  503 -0.0000000000e+00 -0.0000000000e+00 -2.7839590281e+02 2.7839590281e+02 0.0000000000e+00 0.0000e+00 1.0000e+00
        6  1    1    2  501    0 +3.4666789461e+01 +2.9093238410e+01 +1.0590891834e+02 2.0783142639e+02 1.7300000000e+02 0.0000e+00 -1.0000e+00
       -6  1    1    2    0  502 +6.8230186093e+01 -4.9779494749e+01 +3.0590563909e+02 3.6144241093e+02 1.7300000000e+02 0.0000e+00 1.0000e+00
       21  1    1    2  504  501 -6.1576166152e+01 +1.0258315797e+01 -7.5759160528e+01 9.8164696734e+01 0.0000000000e+00 0.0000e+00 1.0000e+00
       21  1    1    2  505  503 -4.1320809402e+01 +1.0427940541e+01 -1.0867575972e+02 1.1673290875e+02 0.0000000000e+00 0.0000e+00 1.0000e+00
<mgrwt>
<rscale>  4 0.18098027E+03</rscale>
<asrwt>0</asrwt>
<pdfrwt beam="1">  1       21 0.77811622E-01 0.18098027E+03</pdfrwt>
<pdfrwt beam="2">  1       21 0.42830139E-01 0.18098027E+03</pdfrwt>
<totfact> 0.77420976E+03</totfact>
</mgrwt>
</event>
<event>
 6      1 +2.5168241e+02 3.09583600e+02 7.54677100e-03 1.10585500e-01
       21 -1    0    0  504  502 +0.0000000000e+00 +0.0000000000e+00 +2.1325573675e+02 2.1325573675e+02 0.0000000000e+00 0.0000e+00 1.0000e+00
       21 -1    0    0  502  503 -0.0000000000e+00 -0.0000000000e+00 -2.2723690618e+03 2.2723690618e+03 0.0000000000e+00 0.0000e+00 1.0000e+00
        6  1    1    2  501    0 +1.2946391033e+02 -1.8068997273e+02 -6.4340341022e+01 2.8892637437e+02 1.7300000000e+02 0.0000e+00 1.0000e+00
       -6  1    1    2    0  505 -8.7972736718e+01 +3.4183107492e+02 -3.2736864512e+02 5.1155343415e+02 1.7300000000e+02 0.0000e+00 1.0000e+00
       21  1    1    2  504  501 -5.3164786614e+01 -1.2149708577e+02 -5.0867442290e+02 5.2567832835e+02 0.0000000000e+00 0.0000e+00 1.0000e+00
       21  1    1    2  505  503 +1.1673612999e+01 -3.9644016420e+01 -1.1587299160e+03 1.1594666617e+03 0.0000000000e+00 0.0000e+00 1.0000e+00
<mgrwt>
<rscale>  4 0.30958360E+03</rscale>
<asrwt>0</asrwt>
<pdfrwt beam="1">  1       21 0.32808574E-01 0.30958360E+03</pdfrwt>
<pdfrwt beam="2">  1       21 0.34959525E+00 0.30958360E+03</pdfrwt>
<totfact> 0.13488270E+02</totfact>
</mgrwt>
</event>
<event>
 6      1 +2.5168241e+02 1.91983800e+02 7.54677100e-03 1.11634100e-01
       21 -1    0    0  504  502 +0.0000000000e+00 +0.0000000000e+00 +1.4763793091e+03 1.4763793091e+03 0.0000000000e+00 0.0000e+00 -1.0000e+00
       21 -1    0    0  505  503 -0.0000000000e+00 -0.0000000000e+00 -5.1247977568e+02 5.1247977568e+02 0.0000000000e+00 0.0000e+00 1.0000e+00
        6  1    1    2  501    0 +8.3116709651e+01 -3.0695319324e+01 +8.8455109013e+02 9.0565458156e+02 1.7300000000e+02 0.0000e+00 -1.0000e+00
       -6  1    1    2    0  502 -9.7618374402e+01 -4.6473736048e+01 +1.2626720872e+02 2.3991990989e+02 1.7300000000e+02 0.0000e+00 -1.0000e+00
       21  1    1    2  504  503 -7.4927263129e+00 +5.6244691510e+01 +3.9563884479e+02 3.9968700476e+02 0.0000000000e+00 0.0000e+00 1.0000e+00
       21  1    1    2  505  501 +2.1994391065e+01 +2.0924363862e+01 -4.4255761021e+02 4.4359758858e+02 0.0000000000e+00 0.0000e+00 1.0000e+00
<mgrwt>
<rscale>  4 0.19198384E+03</rscale>
<asrwt>0</asrwt>
<pdfrwt beam="1">  1       21 0.22713528E+00 0.19198384E+03</pdfrwt>
<pdfrwt beam="2">  1       21 0.78843043E-01 0.19198384E+03</pdfrwt>
<totfact> 0.12948810E+02</totfact>
</mgrwt>
</event>
<event>
 6      1 +2.5168241e+02 1.74339100e+02 7.54677100e-03 1.16871900e-01
       21 -1    0    0  505  502 +0.0000000000e+00 +0.0000000000e+00 +1.6094564315e+03 1.6094564315e+03 0.0000000000e+00 0.0000e+00 -1.0000e+00
       21 -1    0    0  502  503 -0.0000000000e+00 -0.0000000000e+00 -2.4092312803e+02 2.4092312803e+02 0.0000000000e+00 0.0000e+00 -1.0000e+00
        6  1    1    2  501    0 +6.1412223240e+01 +3.8956809068e+01 +1.9842113054e+01 1.8871089949e+02 1.7300000000e+02 0.0000e+00 -1.0000e+00
       -6  1    1    2    0  503 +1.1653320393e+01 -8.1699824246e+00 -1.0351872214e+02 2.0210807585e+02 1.7300000000e+02 0.0000e+00 1.0000e+00
       21  1    1    2  504  501 +2.4792705855e+01 -4.0483758829e+01 +4.1857094426e+02 4.2125437490e+02 0.0000000000e+00 0.0000e+00 -1.0000e+00
       21  1    1    2  505  504 -9.7858249488e+01 +9.6969321851e+00 +1.0336389683e+03 1.0383062093e+03 0.0000000000e+00 0.0000e+00 -1.0000e+00
<mgrwt>
<rscale>  4 0.17433910E+03</rscale>
<asrwt>0</asrwt>
<pdfrwt beam="1">  1       21 0.24760868E+00 0.17433910E+03</pdfrwt>
<pdfrwt beam="2">  1       21 0.37065098E-01 0.17433910E+03</pdfrwt>
<totfact> 0.49459163E+02</totfact>
</mgrwt>
</event>
<event>
 6      1 +2.5168241e+02 1.78331000e+02 7.54677100e-03 1.13358800e-01
       21 -1    0    0  504  502 +0.0000000000e+00 +0.0000000000e+00 +6.5544212352e+02 6.5544212352e+02 0.0000000000e+00 0.0000e+00 1.0000e+00
       21 -1    0    0  501  503 -0.0000000000e+00 -0.0000000000e+00 -1.7474004329e+02 1.7474004329e+02 0.0000000000e+00 0.0000e+00 1.0000e+00
        6  1    1    2  501    0 -4.6148647170e+00 -4.8311210549e+01 +1.3252352500e+02 2.2326386792e+02 1.7300000000e+02 0.0000e+00 1.0000e+00
       -6  1    1    2    0  502 +6.4317899341e+01 +4.1190003089e+00 +1.3123919464e+02 2.2650934759e+02 1.7300000000e+02 0.0000e+00 1.0000e+00
       21  1    1    2  504  505 -5.1208855840e+00 -2.6997851165e+01 +2.7316159636e+02 2.7454027967e+02 0.0000000000e+00 0.0000e+00 1.0000e+00
       21  1    1    2  505  503 -5.4582149040e+01 +7.1190061405e+01 -5.6222235765e+01 1.0586867162e+02 0.0000000000e+00 0.0000e+00 1.0000e+00
<mgrwt>
<rscale>  4 0.17833096E+03</rscale>
<asrwt>0</asrwt>
<pdfrwt beam="1">  1       21 0.10083725E+00 0.17833096E+03</pdfrwt>
<pdfrwt beam="2">  1       21 0.26883084E-01 0.17833096E+03</pdfrwt>
<totfact> 0.10714627E+04</totfact>
</mgrwt>
</event>
<event>
 6      1 +2.5168241e+02 2.16726700e+02 7.54677100e-03 1.17109600e-01
       21 -1    0    0  504  502 +0.0000000000e+00 +0.0000000000e+00 +3.7377874753e+02 3.7377874753e+02 0.0000000000e+00 0.0000e+00 -1.0000e+00
       21 -1    0    0  501  503 -0.0000000000e+00 -0.0000000000e+00 -9.3789407736e+02 9.3789407736e+02 0.0000000000e+00 0.0000e+00 1.0000e+00
        6  1    1    2  501    0 -5.9255104440e+01 -6.3667190436e+01 -7.3404492673e+01 2.0707944873e+02 1.7300000000e+02 0.0000e+00 -1.0000e+00
       -6  1    1    2    0  505 +1.4251039334e+02 +2.9099415215e+01 -7.2279201399e+02 7.5730659819e+02 1.7300000000e+02 0.0000e+00 1.0000e+00
       21  1    1    2  504  503 -6.3479510790e+01 +8.4324321447e-01 -3.8267038779e+01 7.4126416385e+01 0.0000000000e+00 0.0000e+00 -1.0000e+00
       21  1    1    2  505  502 -1.9775778112e+01 +3.3724532006e+01 +2.7034821561e+02 2.7316036158e+02 0.0000000000e+00 0.0000e+00 -1.0000e+00
<mgrwt>
<rscale>  4 0.21672671E+03</rscale>
<asrwt>0</asrwt>
<pdfrwt beam="1">  1       21 0.57504423E-01 0.21672671E+03</pdfrwt>
<pdfrwt beam="2">  1       21 0.14429139E+00 0.21672671E+03</pdfrwt>
<totfact> 0.91632821E+02</totfact>
</mgrwt>
</event>
<event>
 6      1 +2.5168241e+02 2.53022900e+02 7.54677100e-03 1.11634100e-01
       21 -1    0    0  504  502 +0.0000000000e+00 +0.0000000000e+00 +1.1075371792e+02 1.1075371792e+02 0.0000000000e+00 0.0000e+00 1.0000e+00
       21 -1    0    0  502  503 -0.0000000000e+00 -0.0000000000e+00 -2.3598304003e+03 2.3598304003e+03 0.0000000000e+00 0.0000e+00 -1.0000e+00
        6  1    1    2  501    0 -6.3775428600e+01 +2.3352462292e+02 -5.6746676442e+02 6.4074065231e+02 1.7300000000e+02 0.0000e+00 1.0000e+00
       -6  1    1    2    0  503 +9.2745000329e+01 -1.4278500929e+02 -1.3671036640e+03 1.3884850096e+03 1.7300000000e+02 0.0000e+00 -1.0000e+00
       21  1    1    2  504  505 +7.0035681331e+01 -4.5847042067e+01 +2.2973188692e+01 8.6802738001e+01 0.0000000000e+00 0.0000e+00 -1.0000e+00
       21  1    1    2  505  501 -9.9005253061e+01 -4.4892571571e+01 -3.3747944266e+02 3.5455571824e+02 0.0000000000e+00 0.0000e+00 1.0000e+00
<mgrwt>
<rscale>  4 0.25302294E+03</rscale>
<asrwt>0</asrwt>
<pdfrwt beam="1">  1       21 0.17039034E-01 0.25302294E+03</pdfrwt>
<pdfrwt beam="2">  1       21 0.36305083E+00 0.25302294E+03</pdfrwt>
<totfact> 0.41812377E+02</totfact>
</mgrwt>
</event>
<event>
 6      1 +2.5168241e+02 1.87865700e+02 7.54677100e-03 1.11634100e-01
       21 -1    0    0  505  502 +0.0000000000e+00 +0.0000000000e+00 +5.1498742703e+02 5.1498742703e+02 0.0000000000e+00 0.0000e+00 1.0000e+00
       21 -1    0    0  504  503 -0.0000000000e+00 -0.0000000000e+00 -1.5899672542e+03 1.5899672542e+03 0.0000000000e+00 0.0000e+00 1.0000e+00
        6  1    1    2  501    0 -7.1807567559e+01 +1.3486249566e+02 -3.7396384654e+02 4.3945668502e+02 1.7300000000e+02 0.0000e+00 -1.0000e+00
       -6  1    1    2    0  503 -2.7385888583e+01 -5.7988806085e+01 -1.0839888270e+03 1.0995787673e+03 1.7300000000e+02 0.0000e+00 1.0000e+00
       21  1    1    2  504  502 +2.1580483415e+01 -2.5046221498e+01 +4.4987613452e+02 4.5108931143e+02 0.0000000000e+00 0.0000e+00 1.0000e+00
       21  1    1    2  505  501 +7.7612972727e+01 -5.1827468072e+01 -6.6903288244e+01 1.1482991753e+02 0.0000000000e+00 0.0000e+00 -1.0000e+00
<mgrwt>
<rscale>  4 0.18786568E+03</rscale>
<asrwt>0</asrwt>
<pdfrwt beam="1">  1       21 0.79228835E-01 0.18786568E+03</pdfrwt>
<pdfrwt beam="2">  1       21 0.24461035E+00 0.18786568E+03</pdfrwt>
<totfact> 0.10132494E+02</totfact>
</mgrwt>
</event>
<event>
 6      1 +2.5168241e+02 2.19747200e+02 7.54677100e-03 1.07852700e-01
       21 -1    0    0  505  502 +0.0000000000e+00 +0.0000000000e+00 +3.6214031061e+02 3.6214031061e+02 0.0000000000e+00 0.0000e+00 -1.0000e+00
       21 -1    0    0  502  503 -0.0000000000e+00 -0.0000000000e+00 -1.2212825084e+03 1.2212825084e+03 0.0000000000e+00 0.0000e+00 1.0000e+00
        6  1    1    2  501    0 +8.1599340985e+01 -9.6316984604e+01 -9.1384420142e+02 9.3860302495e+02 1.7300000000e+02 0.0000e+00 1.0000e+00
       -6  1    1    2    0  503 -2.8541841585e+01 +2.1508593402e+02 -1.9169600314e+02 3.3727281740e+02 1.7300000000e+02 0.0000e+00 -1.0000e+00
       21  1    1    2  504  501 -9.5776613449e+01 -8.0223330386e+01 +1.8659265827e+02 2.2455681362e+02 0.0000000000e+00 0.0000e+00 -1.0000e+00
       21  1    1    2  505  504 +4.2719114049e+01 -3.8545619034e+01 +5.9805348504e+01 8.2990163041e+01 0.0000000000e+00 0.0000e+00 -1.0000e+00
<mgrwt>
<rscale>  4 0.21974722E+03</rscale>
<asrwt>0</asrwt>
<pdfrwt beam="1">  1       21 0.55713895E-01 0.21974722E+03</pdfrwt>
<pdfrwt beam="2">  1       21 0.18788961E+00 0.21974722E+03</pdfrwt>
<totfact> 0.47392392E+02</totfact>
</mgrwt>
</event>
<event>
 6      1 +2.5168241e+02 2.38635400e+02 7.54677100e-03 1.10585500e-01
       21 -1    0    0  504  502 +0.0000000000e+00 +0.0000000000e+00 +2.1287898983e+02 2.1287898983e+02 0.0000000000e+00 0.0000e+00 1.0000e+00
       21 -1    0    0  502  503 -0.0000000000e+00 -0.0000000000e+00 -8.2818373715e+02 8.2818373715e+02 0.0000000000e+00 0.0000e+00 -1.0000e+00
        6  1    1    2  501    0 +1.6261129551e+02 +5.4350482133e+01 +9.5331692045e+00 2.4375456847e+02 1.7300000000e+02 0.0000e+00 1.0000e+00
       -6  1    1    2    0  505 -1.5922934425e+02 +3.7336054499e-01 -8.7865160424e+01 2.5100480052e+02 1.7300000000e+02 0.0000e+00 -1.0000e+00
       21  1    1    2  504  501 -2.0334772960e+00 -3.2839616569e+01 -5.6884602450e+01 6.5714788611e+01 0.0000000000e+00 0.0000e+00 1.0000e+00
       21  1    1    2  505  503 -1.3484739562e+00 -2.1884226108e+01 -4.8008815366e+02 4.8058856938e+02 0.0000000000e+00 0.0000e+00 -1.0000e+00
<mgrwt>
<rscale>  4 0.23863541E+03</rscale>
<asrwt>0</asrwt>
<pdfrwt beam="1">  1       21 0.32750614E-01 0.23863541E+03</pdfrwt>
<pdfrwt beam="2">  1       21 0.12741288E+00 0.23863541E+03</pdfrwt>
<totfact> 0.39364870E+03</totfact>
</mgrwt>
</event>
<event>
 6      1 +2.5168241e+02 2.10028400e+02 7.54677100e-03 1.13358800e-01
       21 -1    0    0  504  502 +0.0000000000e+00 +0.0000000000e+00 +1.2221697625e+03 1.2221697625e+03 0.0000000000e+00 0.0000e+00 -1.0000e+00
       21 -1    0    0  501  503 -0.0000000000e+00 -0.0000000000e+00 -1.9512759888e+02 1.9512759888e+02 0.0000000000e+00 0.0000e+00 -1.0000e+00
        6  1    1    2  501    0 +2.6272302197e+01 +9.0164582386e+01 +2.5816734988e+00 1.9686429544e+02 1.7300000000e+02 0.0000e+00 -1.0000e+00
       -6  1    1    2    0  502 -1.9471663388e+02 -1.1162940417e+02 +6.6844200516e+02 7.2602989308e+02 1.7300000000e+02 0.0000e+00 -1.0000e+00
       21  1    1    2  504  505 +1.6963671817e+02 -5.9490091735e+00 +4.0451339962e+02 4.3868336797e+02 0.0000000000e+00 0.0000e+00 -1.0000e+00
       21  1    1    2  505  503 -1.1923864843e+00 +2.7413830956e+01 -4.8494914643e+01 5.5719804912e+01 0.0000000000e+00 0.0000e+00 -1.0000e+00
<mgrwt>
<rscale>  4 0.21002838E+03</rscale>
<asrwt>0</asrwt>
<pdfrwt beam="1">  1       21 0.18802611E+00 0.21002838E+03</pdfrwt>
<pdfrwt beam="2">  1       21 0.30019631E-01 0.21002838E+03</pdfrwt>
<totfact> 0.16806917E+03</totfact>
</mgrwt>
</event>
<event>
 6      1 +2.5168241e+02 2.03073700e+02 7.54677100e-03 8.60661900e-02
       21 -1    0    0  503  502 +0.0000000000e+00 +0.0000000000e+00 +1.0817224271e+03 1.0817224271e+03 0.0000000000e+00 0.0000e+00 1.0000e+00
       21 -1    0    0  501  503 -0.0000000000e+00 -0.0000000000e+00 -1.4718134747e+02 1.4718134747e+02 0.0000000000e+00 0.0000e+00 -1.0000e+00
        6  1    1    2  501    0 +1.8207173327e+01 +1.2751861159e+02 +1.4364000831e+02 2.5914079079e+02 1.7300000000e+02 0.0000e+00 -1.0000e+00
       -6  1    1    2    0  504 -2.6939773569e+01 -9.0287023342e+01 +2.6690475899e+01 1.9879355998e+02 1.7300000000e+02 0.0000e+00 -1.0000e+00
       21  1    1    2  504  505 +1.5944256728e+01 -5.8152856615e+01 +2.8799093569e+02 2.9423588002e+02 0.0000000000e+00 0.0000e+00 1.0000e+00
       21  1    1    2  505  502 -7.2116564865e+00 +2.0921268366e+01 +4.7621965969e+02 4.7673354375e+02 0.0000000000e+00 0.0000e+00 -1.0000e+00
<mgrwt>
<rscale>  4 0.20307366E+03</rscale>
<asrwt>0</asrwt>
<pdfrwt beam="1">  1       21 0.16641883E+00 0.20307366E+03</pdfrwt>
<pdfrwt beam="2">  1       21 0.22643285E-01 0.20307366E+03</pdfrwt>
<totfact> 0.40973379E+03</totfact>
</mgrwt>
</event>
<event>
 6      1 +2.5168241e+02 2.04669000e+02 7.54677100e-03 1.11634100e-01
       21 -1    0    0  504  502 +0.0000000000e+00 +0.0000000000e+00 +1.2685633882e+03 1.2685633882e+03 0.0000000000e+00 0.0000e+00 -1.0000e+00
       21 -1    0    0  505  503 -0.0000000000e+00 -0.0000000000e+00 -2.3354399464e+02 2.3354399464e+02 0.0000000000e+00 0.0000e+00 1.0000e+00
        6  1    1    2  501    0 +7.3564051880e+01 +5.3007128157e+01 +3.5525141305e+02 4.0540595931e+02 1.7300000000e+02 0.0000e+00 -1.0000e+00
       -6  1    1    2    0  502 -8.9583615298e+01 -1.0262534145e+02 +3.2145084580e+02 3.8963679383e+02 1.7300000000e+02 0.0000e+00 1.0000e+00
       21  1    1    2  504  503 -3.6688342648e+01 +3.6723214743e+01 +5.2716358713e+02 5.2971320220e+02 0.0000000000e+00 0.0000e+00 1.0000e+00
       21  1    1    2  505  501 +5.2707906066e+01 +1.2894998546e+01 -1.6884645242e+02 1.7735142752e+02 0.0000000000e+00 0.0000e+00 1.0000e+00
<mgrwt>
<rscale>  4 0.20466904E+03</rscale>
<asrwt>0</asrwt>
<pdfrwt beam="1">  1       21 0.19516359E+00 0.20466904E+03</pdfrwt>
<pdfrwt beam="2">  1       21 0.35929846E-01 0.20466904E+03</pdfrwt>
<totfact> 0.10637361E+03</totfact>
</mgrwt>
</event>
<event>
 6      1 +2.5168241e+02 1.85125700e+02 7.54677100e-03 1.17389200e-01
       21 -1    0    0  504  502 +0.0000000000e+00 +0.0000000000e+00 +2.5015379612e+02 2.5015379612e+02 0.0000000000e+00 0.0000e+00 1.0000e+00
       21 -1    0    0  501  503 -0.0000000000e+00 -0.0000000000e+00 -3.7187141319e+02 3.7187141319e+02 0.0000000000e+00 0.0000e+00 1.0000e+00
        6  1    1    2  501    0 -7.0626364704e+01 +1.7255039283e+01 +1.2058536321e+02 2.2305974444e+02 1.7300000000e+02 0.0000e+00 1.0000e+00
       -6  1    1    2    0  505 +5.1443587957e+01 +5.8900032412e-02 -4.7995415573e+01 1.8675921966e+02 1.7300000000e+02 0.0000e+00 1.0000e+00
       21  1    1    2  504  503 +2.3770901132e+01 +4.0542880069e+00 -1.8788597038e+02 1.8942711226e+02 0.0000000000e+00 0.0000e+00 1.0000e+00
       21  1    1    2  505  502 -4.5881243850e+00 -2.1368227322e+01 -6.4215943220e+00 2.2779132949e+01 0.0000000000e+00 0.0000e+00 1.0000e+00
<mgrwt>
<rscale>  4 0.18512573E+03</rscale>
<asrwt>0</asrwt>
<pdfrwt beam="1">  1       21 0.38485199E-01 0.18512573E+03</pdfrwt>
<pdfrwt beam="2">  1       21 0.57210987E-01 0.18512573E+03</pdfrwt>
<totfact> 0.18763162E+04</totfact>
</mgrwt>
</event>
<event>
 6      1 +2.5168241e+02 1.90219500e+02 7.54677100e-03 1.11634100e-01
       21 -1    0    0  503  502 +0.0000000000e+00 +0.0000000000e+00 +8.2177973672e+02 8.2177973672e+02 0.0000000000e+00 0.0000e+00 -1.0000e+00
       21 -1    0    0  505  503 -0.0000000000e+00 -0.0000000000e+00 -7.9970145028e+02 7.9970145028e+02 0.0000000000e+00 0.0000e+00 -1.0000e+00
        6  1    1    2  501    0 +3.7704971068e+01 -1.1463682931e+02 -2.1116420961e+02 2.9846706836e+02 1.7300000000e+02 0.0000e+00 1.0000e+00
       -6  1    1    2    0  504 -6.3459187994e+01 +6.1848866677e+01 -2.9983442940e+02 3.5732623176e+02 1.7300000000e+02 0.0000e+00 -1.0000e+00
       21  1    1    2  504  502 +8.9503207489e+00 +1.6160677366e+02 +7.2585438448e+02 7.4368101025e+02 0.0000000000e+00 0.0000e+00 -1.0000e+00
       21  1    1    2  505  501 +1.6803896178e+01 -1.0881881102e+02 -1.9277745904e+02 2.2200687664e+02 0.0000000000e+00 0.0000e+00 1.0000e+00
<mgrwt>
<rscale>  4 0.19021946E+03</rscale>
<asrwt>0</asrwt>
<pdfrwt beam="1">  1       21 0.12642765E+00 0.19021946E+03</pdfrwt>
<pdfrwt beam="2">  1       21 0.12303099E+00 0.19021946E+03</pdfrwt>
<totfact> 0.23083375E+02</totfact>
</mgrwt>
</event>
<event>
 6      1 +2.5168241e+02 1.98564800e+02 7.54677100e-03 1.11476600e-01
       21 -1    0    0  503  502 +0.0000000000e+00 +0.0000000000e+00 +2.7958734629e+02 2.7958734629e+02 0.0000000000e+00 0.0000e+00 1.0000e+00
       21 -1    0    0  505  503 -0.0000000000e+00 -0.0000000000e+00 -4.7352659308e+02 4.7352659308e+02 0.0000000000e+00 0.0000e+00 1.0000e+00
        6  1    1    2  501    0 +1.0826944160e+02 -1.0614140677e+02 -2.4656865277e+02 3.3721413189e+02 1.7300000000e+02 0.0000e+00 1.0000e+00
       -6  1    1    2    0  502 -8.0843437131e+01 +4.0534033399e+01 +1.8187257205e+02 2.6680573767e+02 1.7300000000e+02 0.0000e+00 1.0000e+00
       21  1    1    2  504  501 -1.6955150638e+01 +4.4443699874e+01 -6.4233734952e+01 7.9929295615e+01 0.0000000000e+00 0.0000e+00 -1.0000e+00
       21  1    1    2  505  504 -1.0470853831e+01 +2.1163673497e+01 -6.5009431119e+01 6.9164774201e+01 0.0000000000e+00 0.0000e+00 -1.0000e+00
<mgrwt>
<rscale>  4 0.19856478E+03</rscale>
<asrwt>0</asrwt>
<pdfrwt beam="1">  1       21 0.43013438E-01 0.19856478E+03</pdfrwt>
<pdfrwt beam="2">  1       21 0.72850244E-01 0.19856478E+03</pdfrwt>
<totfact> 0.87796130E+03</totfact>
</mgrwt>
</event>
<event>
 6      1 +2.5168241e+02 2.10505600e+02 7.54677100e-03 1.14278100e-01
       21 -1    0    0  501  502 +0.0000000000e+00 +0.0000000000e+00 +2.8055099620e+02 2.8055099620e+02 0.0000000000e+00 0.0000e+00 1.0000e+00
       21 -1    0    0  504  503 -0.0000000000e+00 -0.0000000000e+00 -6.4304865306e+02 6.4304865306e+02 0.0000000000e+00 0.0000e+00 1.0000e+00
        6  1    1    2  501    0 +4.7153910793e+01 +1.3049264172e+02 -4.6494395148e+02 5.1512493520e+02 1.7300000000e+02 0.0000e+00 1.0000e+00
       -6  1    1    2    0  505 -6.4628996395e+00 -7.4830938822e+01 -7.9639711965e+01 2.0472645701e+02 1.7300000000e+02 0.0000e+00 1.0000e+00
       21  1    1    2  504  502 -2.2879182460e+01 +6.4915589712e+00 +7.4763692065e+01 7.8455127169e+01 0.0000000000e+00 0.0000e+00 1.0000e+00
       21  1    1    2  505  503 -1.7811828694e+01 -6.2153261872e+01 +1.0732231452e+02 1.2529312988e+02 0.0000000000e+00 0.0000e+00 1.0000e+00
<mgrwt>
<rscale>  4 0.21050561E+03</rscale>
<asrwt>0</asrwt>
<pdfrwt beam="1">  1       21 0.43161692E-01 0.21050561E+03</pdfrwt>
<pdfrwt beam="2">  1       21 0.98930560E-01 0.21050561E+03</pdfrwt>
<totfact> 0.42848505E+03</totfact>
</mgrwt>
</event>
<event>
 6      1 +2.5168241e+02 4.81253100e+02 7.54677100e-03 8.60661900e-02
       21 -1    0    0  504  502 +0.0000000000e+00 +0.0000000000e+00 +2.0869945680e+02 2.0869945680e+02 0.0000000000e+00 0.0000e+00 1.0000e+00
       21 -1    0    0  502  503 -0.0000000000e+00 -0.0000000000e+00 -2.3156474032e+03 2.3156474032e+03 0.0000000000e+00 0.0000e+00 1.0000e+00
        6  1    1    2  501    0 +1.7821689361e+02 +2.0968845445e+02 -2.9703852116e+02 4.4033100294e+02 1.7300000000e+02 0.0000e+00 1.0000e+00
       -6  1    1    2    0  503 -1.0788244114e+02 +3.7075819306e+02 -8.4817660200e+02 9.4785695493e+02 1.7300000000e+02 0.0000e+00 1.0000e+00
       21  1    1    2  504  505 +3.1048488964e+00 -6.5022947884e+01 -3.6834610502e+01 7.4795804489e+01 0.0000000000e+00 0.0000e+00 -1.0000e+00
       21  1    1    2  505  501 -7.3439301366e+01 -5.1542369963e+02 -9.2489821275e+02 1.0613630977e+03 0.0000000000e+00 0.0000e+00 1.0000e+00
<mgrwt>
<rscale>  4 0.43628342E+03</rscale>
<asrwt>0</asrwt>
<pdfrwt beam="1">  1       21 0.32107609E-01 0.48125307E+03</pdfrwt>
<pdfrwt beam="2">  1       21 0.35625344E+00 0.48125307E+03</pdfrwt>
<totfact> 0.11187062E+02</totfact>
</mgrwt>
</event>
<event>
 6      1 +2.5168241e+02 1.92177200e+02 7.54677100e-03 1.11316500e-01
       21 -1    0    0  505  502 +0.0000000000e+00 +0.0000000000e+00 +6.2876631650e+02 6.2876631650e+02 0.0000000000e+00 0.0000e+00 1.0000e+00
       21 -1    0    0  504  503 -0.0000000000e+00 -0.0000000000e+00 -1.7642016917e+02 1.7642016917e+02 0.0000000000e+00 0.0000e+00 1.0000e+00
        6  1    1    2  501    0 -3.6704958428e+01 +4.3589078007e+01 +1.6491630973e+02 2.4571050223e+02 1.7300000000e+02 0.0000e+00 1.0000e+00
       -6  1    1    2    0  502 -3.3823631405e+00 -1.1156834469e+02 +3.2212372274e+02 3.8229782719e+02 1.7300000000e+02 0.0000e+00 1.0000e+00
       21  1    1    2  504  501 +2.3202587542e+01 +8.1766949534e+01 +4.3867804775e+01 9.5648201240e+01 0.0000000000e+00 0.0000e+00 1.0000e+00
       21  1    1    2  505  503 +1.6884734026e+01 -1.3787682851e+01 -7.8561689911e+01 8.1529955006e+01 0.0000000000e+00 0.0000e+00 1.0000e+00
<mgrwt>
<rscale>  4 0.19217723E+03</rscale>
<asrwt>0</asrwt>
<pdfrwt beam="1">  1       21 0.96733278E-01 0.19217723E+03</pdfrwt>
<pdfrwt beam="2">  1       21 0.27141565E-01 0.19217723E+03</pdfrwt>
<totfact> 0.11492046E+04</totfact>
</mgrwt>
</event>
<event>
 6      1 +2.5168241e+02 1.78247800e+02 7.54677100e-03 1.14278100e-01
       21 -1    0    0  501  502 +0.0000000000e+00 +0.0000000000e+00 +6.4678848230e+02 6.4678848230e+02 0.0000000000e+00 0.0000e+00 -1.0000e+00
       21 -1    0    0  504  503 -0.0000000000e+00 -0.0000000000e+00 -8.5225999361e+02 8.5225999361e+02 0.0000000000e+00 0.0000e+00 -1.0000e+00
        6  1    1    2  501    0 -5.5480099715e+01 +7.8752884197e+01 +2.6637694947e+02 3.3191224358e+02 1.7300000000e+02 0.0000e+00 -1.0000e+00
       -6  1    1    2    0  505 +2.4588170212e+01 -3.3064038324e+01 -8.0628808979e+02 8.2566778579e+02 1.7300000000e+02 0.0000e+00 -1.0000e+00
       21  1    1    2  504  502 +2.2899585277e+01 -1.0329602387e+01 +2.1986826687e+02 2.2129877195e+02 0.0000000000e+00 0.0000e+00 -1.0000e+00
       21  1    1    2  505  503 +7.9923442260e+00 -3.5359243486e+01 +1.1457136215e+02 1.2016967459e+02 0.0000000000e+00 0.0000e+00 -1.0000e+00
<mgrwt>
<rscale>  4 0.17824776E+03</rscale>
<asrwt>0</asrwt>
<pdfrwt beam="1">  1       21 0.99505920E-01 0.17824776E+03</pdfrwt>
<pdfrwt beam="2">  1       21 0.13111692E+00 0.17824776E+03</pdfrwt>
<totfact> 0.35761464E+02</totfact>
</mgrwt>
</event>
<event>
 6      1 +2.5168241e+02 2.05692800e+02 7.54677100e-03 1.11634100e-01
       21 -1    0    0  503  502 +0.0000000000e+00 +0.0000000000e+00 +6.5686170503e+02 6.5686170503e+02 0.0000000000e+00 0.0000e+00 -1.0000e+00
       21 -1    0    0  505  503 -0.0000000000e+00 -0.0000000000e+00 -2.3331113447e+02 2.3331113447e+02 0.0000000000e+00 0.0000e+00 1.0000e+00
        6  1    1    2  501    0 -7.2444123401e+01 -8.6971186525e+01 +1.0466203801e+02 2.3172242123e+02 1.7300000000e+02 0.0000e+00 1.0000e+00
       -6  1    1    2    0  504 +3.0943402835e+01 +1.0991299177e+02 +2.0322099171e+02 2.9028629215e+02 1.7300000000e+02 0.0000e+00 -1.0000e+00
       21  1    1    2  504  502 +1.9803703610e+01 -1.0496534241e+01 +2.4014993781e+02 2.4119360800e+02 0.0000000000e+00 0.0000e+00 -1.0000e+00
       21  1    1    2  505  501 +2.1697016956e+01 -1.2445271000e+01 -1.2448239697e+02 1.2697051812e+02 0.0000000000e+00 0.0000e+00 1.0000e+00
<mgrwt>
<rscale>  4 0.20569279E+03</rscale>
<asrwt>0</asrwt>
<pdfrwt beam="1">  1       21 0.10105565E+00 0.20569279E+03</pdfrwt>
<pdfrwt beam="2">  1       21 0.35894021E-01 0.20569279E+03</pdfrwt>
<totfact> 0.59333001E+03</totfact>
</mgrwt>
</event>
<event>
 6      1 +2.5168241e+02 2.68991600e+02 7.54677100e-03 1.13358800e-01
       21 -1    0    0  504  502 +0.0000000000e+00 +0.0000000000e+00 +1.2811262976e+03 1.2811262976e+03 0.0000000000e+00 0.0000e+00 -1.0000e+00
       21 -1    0    0  501  503 -0.0000000000e+00 -0.0000000000e+00 -9.6658243072e+01 9.6658243072e+01 0.0000000000e+00 0.0000e+00 -1.0000e+00
        6  1    1    2  501    0 +1.6452059497e+02 -1.6653661283e+02 +6.2087576354e+02 6.8572383897e+02 1.7300000000e+02 0.0000e+00 -1.0000e+00
       -6  1    1    2    0  502 -1.1655987923e+02 +1.3472616994e+02 +4.1791645270e+02 4.8612807752e+02 1.7300000000e+02 0.0000e+00 -1.0000e+00
       21  1    1    2  504  505 -2.1913491051e+01 +7.1894016803e-01 +1.6106539723e+02 1.6255085405e+02 0.0000000000e+00 0.0000e+00 -1.0000e+00
       21  1    1    2  505  503 -2.6047224692e+01 +3.1091502716e+01 -1.5389558950e+01 4.3381770134e+01 0.0000000000e+00 0.0000e+00 -1.0000e+00
<mgrwt>
<rscale>  4 0.26899158E+03</rscale>
<asrwt>0</asrwt>
<pdfrwt beam="1">  1       21 0.19709634E+00 0.26899158E+03</pdfrwt>
<pdfrwt beam="2">  1       21 0.14870500E-01 0.26899158E+03</pdfrwt>
<totfact> 0.52612174E+03</totfact>
</mgrwt>
</event>
<event>
 6      1 +2.5168241e+02 2.51282600e+02 7.54677100e-03 1.13358800e-01
       21 -1    0    0  504  502 +0.0000000000e+00 +0.0000000000e+00 +3.2178993799e+02 3.2178993799e+02 0.0000000000e+00 0.0000e+00 1.0000e+00
       21 -1    0    0  501  503 -0.0000000000e+00 -0.0000000000e+00 -3.5051990043e+02 3.5051990043e+02 0.0000000000e+00 0.0000e+00 -1.0000e+00
        6  1    1    2  501    0 +7.4202877450e+01 -1.6130443228e+02 -1.4649689914e+01 2.4833203642e+02 1.7300000000e+02 0.0000e+00 1.0000e+00
       -6  1    1    2    0  502 -1.2440165097e+02 +1.4198562389e+02 -6.6172739134e+01 2.6446837157e+02 1.7300000000e+02 0.0000e+00 -1.0000e+00
       21  1    1    2  504  505 +3.1897082470e+01 -1.7644003136e+00 +9.9494121972e+01 1.0449697261e+02 0.0000000000e+00 0.0000e+00 1.0000e+00
       21  1    1    2  505  503 +1.8301691048e+01 +2.1083208705e+01 -4.7401655360e+01 5.5012457820e+01 0.0000000000e+00 0.0000e+00 1.0000e+00
<mgrwt>
<rscale>  4 0.25128258E+03</rscale>
<asrwt>0</asrwt>
<pdfrwt beam="1">  1       21 0.49506144E-01 0.25128258E+03</pdfrwt>
<pdfrwt beam="2">  1       21 0.53926138E-01 0.25128258E+03</pdfrwt>
<totfact> 0.12213797E+04</totfact>
</mgrwt>
</event>
<event>
 6      1 +2.5168241e+02 1.84584700e+02 7.54677100e-03 1.11476600e-01
       21 -1    0    0  503  502 +0.0000000000e+00 +0.0000000000e+00 +2.3394773068e+02 2.3394773068e+02 0.0000000000e+00 0.0000e+00 1.0000e+00
       21 -1    0    0  505  503 -0.0000000000e+00 -0.0000000000e+00 -7.7793352193e+02 7.7793352193e+02 0.0000000000e+00 0.0000e+00 -1.0000e+00
        6  1    1    2  501    0 +7.5745232575e+01 -3.2788644541e+01 +7.8567876948e+01 2.0715778227e+02 1.7300000000e+02 0.0000e+00 1.0000e+00
       -6  1    1    2    0  502 -4.1368670457e+01 +2.2326826978e+00 +2.2313201429e+00 1.7790539777e+02 1.7300000000e+02 0.0000e+00 1.0000e+00
       21  1    1    2  504  501 -2.4771620124e+01 +8.9663217206e+00 -2.8642766237e+02 2.8763663511e+02 0.0000000000e+00 0.0000e+00 -1.0000e+00
       21  1    1    2  505  504 -9.6049419936e+00 +2.1589640123e+01 -3.3835732598e+02 3.3918143746e+02 0.0000000000e+00 0.0000e+00 -1.0000e+00
<mgrwt>
<rscale>  4 0.18458469E+03</rscale>
<asrwt>0</asrwt>
<pdfrwt beam="1">  1       21 0.35991958E-01 0.18458469E+03</pdfrwt>
<pdfrwt beam="2">  1       21 0.11968208E+00 0.18458469E+03</pdfrwt>
<totfact> 0.39842383E+03</totfact>
</mgrwt>
</event>
<event>
 6      1 +2.5168241e+02 2.50131900e+02 7.54677100e-03 1.07852700e-01
       21 -1    0    0  504  502 +0.0000000000e+00 +0.0000000000e+00 +5.7693863698e+02 5.7693863698e+02 0.0000000000e+00 0.0000e+00 1.0000e+00
       21 -1    0    0  505  503 -0.0000000000e+00 -0.0000000000e+00 -2.7367872049e+02 2.7367872049e+02 0.0000000000e+00 0.0000e+00 1.0000e+00
        6  1    1    2  501    0 +1.0796119751e+02 +1.3033668627e+02 +2.2700322143e+02 3.3181732097e+02 1.7300000000e+02 0.0000e+00 1.0000e+00
       -6  1    1    2    0  503 -1.5689076776e+02 -9.9014212533e+01 -1.4032654921e+02 2.8989492528e+02 1.7300000000e+02 0.0000e+00 1.0000e+00
       21  1    1    2  504  501 +1.6190720224e+01 -3.6041738073e+01 +1.4033933283e+02 1.4579531763e+02 0.0000000000e+00 0.0000e+00 1.0000e+00
       21  1    1    2  505  502 +3.2738850028e+01 +4.7192643347e+00 +7.6243911445e+01 8.3109793584e+01 0.0000000000e+00 0.0000e+00 1.0000e+00
<mgrwt>
<rscale>  4 0.25013192E+03</rscale>
<asrwt>0</asrwt>
<pdfrwt beam="1">  1       21 0.88759790E-01 0.25013192E+03</pdfrwt>
<pdfrwt beam="2">  1       21 0.42104419E-01 0.25013192E+03</pdfrwt>
<totfact> 0.56590220E+03</totfact>
</mgrwt>
</event>
<event>
 6      1 +2.5168241e+02 2.04009200e+02 7.54677100e-03 1.17389200e-01
       21 -1    0    0  504  502 +0.0000000000e+00 +0.0000000000e+00 +1.1545907368e+03 1.1545907368e+03 0.0000000000e+00 0.0000e+00 1.0000e+00
       21 -1    0    0  501  503 -0.0000000000e+00 -0.0000000000e+00 -1.6958150701e+02 1.6958150701e+02 0.0000000000e+00 0.0000e+00 -1.0000e+00
        6  1    1    2  501    0 +1.1613464232e+02 +3.6144085166e+01 +9.5231926726e+02 9.7551762507e+02 1.7300000000e+02 0.0000e+00 1.0000e+00
       -6  1    1    2    0  502 -5.3320429000e+01 -8.6101469440e+00 +1.2821617505e+02 2.2200358178e+02 1.7300000000e+02 0.0000e+00 -1.0000e+00
       21  1    1    2  504  505 -3.6217883778e+01 -6.5573290620e-01 -7.5780485963e+01 8.3993137480e+01 0.0000000000e+00 0.0000e+00 -1.0000e+00
       21  1    1    2  505  503 -2.6596329541e+01 -2.6878205316e+01 -1.9745726592e+01 4.2657899440e+01 0.0000000000e+00 0.0000e+00 -1.0000e+00
<mgrwt>
<rscale>  4 0.20400920E+03</rscale>
<asrwt>0</asrwt>
<pdfrwt beam="1">  1       21 0.17762934E+00 0.20400920E+03</pdfrwt>
<pdfrwt beam="2">  1       21 0.26089463E-01 0.20400920E+03</pdfrwt>
<totfact> 0.26081935E+03</totfact>
</mgrwt>
</event>
<event>
 6      1 +2.5168241e+02 3.50747000e+02 7.54677100e-03 1.11476600e-01
       21 -1    0    0  505  502 +0.0000000000e+00 +0.0000000000e+00 +1.0786162916e+03 1.0786162916e+03 0.0000000000e+00 0.0000e+00 1.0000e+00
       21 -1    0    0  504  503 -0.0000000000e+00 -0.0000000000e+00 -2.4774357688e+03 2.4774357688e+03 0.0000000000e+00 0.0000e+00 -1.0000e+00
        6  1    1    2  501    0 +2.9351671057e+02 -7.3557855596e+01 -1.3291193934e+02 3.7303806927e+02 1.7300000000e+02 0.0000e+00 -1.0000e+00
       -6  1    1    2    0  502 -3.0620786856e+02 +6.9443227677e+00 +9.2421157541e+02 9.8889206616e+02 1.7300000000e+02 0.0000e+00 1.0000e+00
       21  1    1    2  504  501 +1.6852371766e+01 -1.2294930837e+01 -8.5073657720e+01 8.7593921001e+01 0.0000000000e+00 0.0000e+00 1.0000e+00
       21  1    1    2  505  503 -4.1612137802e+00 +7.8908463666e+01 -2.1050454556e+03 2.1065280040e+03 0.0000000000e+00 0.0000e+00 -1.0000e+00
<mgrwt>
<rscale>  4 0.35074699E+03</rscale>
<asrwt>0</asrwt>
<pdfrwt beam="1">  1       21 0.16594097E+00 0.35074699E+03</pdfrwt>
<pdfrwt beam="2">  1       21 0.38114396E+00 0.35074699E+03</pdfrwt>
<totfact> 0.19865377E+00</totfact>
</mgrwt>
</event>
<event>
 6      1 +2.5168241e+02 2.23163700e+02 7.54677100e-03 1.11476600e-01
       21 -1    0    0  503  502 +0.0000000000e+00 +0.0000000000e+00 +2.1654657799e+02 2.1654657799e+02 0.0000000000e+00 0.0000e+00 -1.0000e+00
       21 -1    0    0  505  503 -0.0000000000e+00 -0.0000000000e+00 -1.7566946068e+03 1.7566946068e+03 0.0000000000e+00 0.0000e+00 -1.0000e+00
        6  1    1    2  501    0 -7.9017641911e+01 +1.6333999830e+02 -3.8891568960e+01 2.5370316693e+02 1.7300000000e+02 0.0000e+00 1.0000e+00
       -6  1    1    2    0  502 +9.2709888527e+01 -7.1893453320e+01 -9.7754812270e+00 2.0925666559e+02 1.7300000000e+02 0.0000e+00 -1.0000e+00
       21  1    1    2  504  501 -9.7572352942e+01 -1.0694157736e+02 -1.1087178799e+03 1.1181288845e+03 0.0000000000e+00 0.0000e+00 -1.0000e+00
       21  1    1    2  505  504 +8.3880106326e+01 +1.5495032384e+01 -3.8276309867e+02 3.9215246775e+02 0.0000000000e+00 0.0000e+00 1.0000e+00
<mgrwt>
<rscale>  4 0.22316372E+03</rscale>
<asrwt>0</asrwt>
<pdfrwt beam="1">  1       21 0.33314857E-01 0.22316372E+03</pdfrwt>
<pdfrwt beam="2">  1       21 0.27026071E+00 0.22316372E+03</pdfrwt>
<totfact> 0.42238347E+02</totfact>
</mgrwt>
</event>
<event>
 6      1 +2.5168241e+02 2.40991100e+02 7.54677100e-03 1.11316500e-01
       21 -1    0    0  505  502 +0.0000000000e+00 +0.0000000000e+00 +7.4589298060e+02 7.4589298060e+02 0.0000000000e+00 0.0000e+00 1.0000e+00
       21 -1    0    0  504  503 -0.0000000000e+00 -0.0000000000e+00 -2.3748560193e+02 2.3748560193e+02 0.0000000000e+00 0.0000e+00 1.0000e+00
        6  1    1    2  501    0 -2.6266831892e+01 +2.1932881940e+02 +2.5520757926e+02 3.7928219836e+02 1.7300000000e+02 0.0000e+00 1.0000e+00
       -6  1    1    2    0  502 -8.6930038319e+01 -1.2122574637e+02 +2.3300504141e+02 3.2630179661e+02 1.7300000000e+02 0.0000e+00 -1.0000e+00
       21  1    1    2  504  501 +1.2221012386e+02 -7.7795363975e+01 +1.1214090429e+02 1.8320211637e+02 0.0000000000e+00 0.0000e+00 1.0000e+00
       21  1    1    2  505  503 -9.0132536503e+00 -2.0307709054e+01 -9.1946146291e+01 9.4592471191e+01 0.0000000000e+00 0.0000e+00 1.0000e+00
<mgrwt>
<rscale>  4 0.24099112E+03</rscale>
<asrwt>0</asrwt>
<pdfrwt beam="1">  1       21 0.11475277E+00 0.24099112E+03</pdfrwt>
<pdfrwt beam="2">  1       21 0.36536247E-01 0.24099112E+03</pdfrwt>
<totfact> 0.41040751E+03</totfact>
</mgrwt>
</event>
<event>
 6      1 +2.5168241e+02 1.80107500e+02 7.54677100e-03 1.08788200e-01
       21 -1    0    0  503  502 +0.0000000000e+00 +0.0000000000e+00 +4.6562634845e+02 4.6562634845e+02 0.0000000000e+00 0.0000e+00 1.0000e+00
       21 -1    0    0  504  503 -0.0000000000e+00 -0.0000000000e+00 -5.4005894034e+02 5.4005894034e+02 0.0000000000e+00 0.0000e+00 1.0000e+00
        6  1    1    2  501    0 +4.8615703613e+00 -1.5857581251e+02 +1.1590991072e+02 2.6179005058e+02 1.7300000000e+02 0.0000e+00 1.0000e+00
       -6  1    1    2    0  505 +7.7404620263e+01 -6.5616299525e+01 +1.8332777326e+02 2.7172605037e+02 1.7300000000e+02 0.0000e+00 1.0000e+00
       21  1    1    2  504  501 -3.1172460519e+01 +9.8999676824e+01 -3.0156800718e+02 3.1892933584e+02 0.0000000000e+00 0.0000e+00 1.0000e+00
       21  1    1    2  505  502 -5.1093730105e+01 +1.2519243521e+02 -7.2102268697e+01 1.5323985200e+02 0.0000000000e+00 0.0000e+00 -1.0000e+00
<mgrwt>
<rscale>  4 0.18010747E+03</rscale>
<asrwt>0</asrwt>
<pdfrwt beam="1">  1       21 0.71634823E-01 0.18010747E+03</pdfrwt>
<pdfrwt beam="2">  1       21 0.83085991E-01 0.18010747E+03</pdfrwt>
<totfact> 0.22479773E+03</totfact>
</mgrwt>
</event>
<event>
 6      1 +2.5168241e+02 2.53557000e+02 7.54677100e-03 1.11634100e-01
       21 -1    0    0  504  502 +0.0000000000e+00 +0.0000000000e+00 +4.5629512634e+02 4.5629512634e+02 0.0000000000e+00 0.0000e+00 -1.0000e+00
       21 -1    0    0  502  503 -0.0000000000e+00 -0.0000000000e+00 -3.2802051341e+02 3.2802051341e+02 0.0000000000e+00 0.0000e+00 -1.0000e+00
        6  1    1    2  501    0 +9.8930903218e+01 +1.6691096905e+02 +1.2502521063e+02 2.8845605990e+02 1.7300000000e+02 0.0000e+00 -1.0000e+00
       -6  1    1    2    0  503 +8.0727631836e+01 -1.0066391724e+00 +2.3787835388e+01 1.9238717467e+02 1.7300000000e+02 0.0000e+00 -1.0000e+00
       21  1    1    2  504  505 -1.4506709000e+01 -7.4162584838e+01 +6.1573332219e+01 9.7477222141e+01 0.0000000000e+00 0.0000e+00 1.0000e+00
       21  1    1    2  505  501 -1.6515182605e+02 -9.1741745043e+01 -8.2111765310e+01 2.0599518304e+02 0.0000000000e+00 0.0000e+00 -1.0000e+00
<mgrwt>
<rscale>  4 0.23606239E+03</rscale>
<asrwt>0</asrwt>
<pdfrwt beam="1">  1       21 0.70199250E-01 0.25355696E+03</pdfrwt>
<pdfrwt beam="2">  1       21 0.50464694E-01 0.25355696E+03</pdfrwt>
<totfact> 0.66087554E+03</totfact>
</mgrwt>
</event>
<event>
 6      1 +2.5168241e+02 3.51879900e+02 7.54677100e-03 1.11634100e-01
       21 -1    0    0  503  502 +0.0000000000e+00 +0.0000000000e+00 +1.3498556226e+03 1.3498556226e+03 0.0000000000e+00 0.0000e+00 -1.0000e+00
       21 -1    0    0  505  503 -0.0000000000e+00 -0.0000000000e+00 -6.6492496134e+02 6.6492496134e+02 0.0000000000e+00 0.0000e+00 1.0000e+00
        6  1    1    2  501    0 +3.0055216046e+02 +2.2791028955e+01 +7.7315823041e+02 8.4767545759e+02 1.7300000000e+02 0.0000e+00 -1.0000e+00
       -6  1    1    2    0  504 -2.8804386813e+02 +3.7082955853e+00 +9.1351902523e+01 3.4822003319e+02 1.7300000000e+02 0.0000e+00 1.0000e+00
       21  1    1    2  504  502 +1.6381229421e+01 -3.4199136367e+01 +3.1807798541e+02 3.2033034575e+02 0.0000000000e+00 0.0000e+00 1.0000e+00
       21  1    1    2  505  501 -2.8889521751e+01 +7.6998118266e+00 -4.9765745708e+02 4.9855474740e+02 0.0000000000e+00 0.0000e+00 1.0000e+00
<mgrwt>
<rscale>  4 0.35187990E+03</rscale>
<asrwt>0</asrwt>
<pdfrwt beam="1">  1       21 0.20767009E+00 0.35187990E+03</pdfrwt>
<pdfrwt beam="2">  1       21 0.10229615E+00 0.35187990E+03</pdfrwt>
<totfact> 0.78729778E+01</totfact>
</mgrwt>
</event>
<event>
 6      1 +2.5168241e+02 1.94635100e+02 7.54677100e-03 1.07852700e-01
       21 -1    0    0  504  502 +0.0000000000e+00 +0.0000000000e+00 +4.2664405057e+02 4.2664405057e+02 0.0000000000e+00 0.0000e+00 -1.0000e+00
       21 -1    0    0  505  503 -0.0000000000e+00 -0.0000000000e+00 -3.6504618903e+02 3.6504618903e+02 0.0000000000e+00 0.0000e+00 1.0000e+00
        6  1    1    2  501    0 -5.4570354679e+01 +8.5751818754e+01 -2.2111257685e+02 2.9858176380e+02 1.7300000000e+02 0.0000e+00 1.0000e+00
       -6  1    1    2    0  503 -7.3983716123e+01 -8.4868436175e+01 +4.9373610530e+01 2.1223335065e+02 1.7300000000e+02 0.0000e+00 -1.0000e+00
       21  1    1    2  504  501 +1.0090019937e+02 +2.5596521889e+01 +2.1401554375e+02 2.3798883405e+02 0.0000000000e+00 0.0000e+00 -1.0000e+00
       21  1    1    2  505  502 +2.7653871427e+01 -2.6479904468e+01 +1.9321284119e+01 4.2886291114e+01 0.0000000000e+00 0.0000e+00 -1.0000e+00
<mgrwt>
<rscale>  4 0.19463507E+03</rscale>
<asrwt>0</asrwt>
<pdfrwt beam="1">  1       21 0.65637546E-01 0.19463507E+03</pdfrwt>
<pdfrwt beam="2">  1       21 0.56160952E-01 0.19463507E+03</pdfrwt>
<totfact> 0.63578692E+03</totfact>
</mgrwt>
</event>
<event>
 6      1 +2.5168241e+02 1.80528000e+02 7.54677100e-03 1.07852700e-01
       21 -1    0    0  505  502 +0.0000000000e+00 +0.0000000000e+00 +3.0050504865e+02 3.0050504865e+02 0.0000000000e+00 0.0000e+00 1.0000e+00
       21 -1    0    0  502  503 -0.0000000000e+00 -0.0000000000e+00 -5.4167930201e+02 5.4167930201e+02 0.0000000000e+00 0.0000e+00 -1.0000e+00
        6  1    1    2  501    0 +1.0023692333e+01 +5.1907262189e+01 -4.1948683648e+02 4.5682933822e+02 1.7300000000e+02 0.0000e+00 -1.0000e+00
       -6  1    1    2    0  503 -1.0263462142e+02 -1.1411914833e+01 +5.0295605795e+01 2.0766016777e+02 1.7300000000e+02 0.0000e+00 1.0000e+00
       21  1    1    2  504  501 +8.4422145460e+01 -2.1640166715e+01 +5.7912641405e+01 1.0463875713e+02 0.0000000000e+00 0.0000e+00 -1.0000e+00
       21  1    1    2  505  504 +8.1887836285e+00 -1.8855180641e+01 +7.0104335919e+01 7.3056087556e+01 0.0000000000e+00 0.0000e+00 1.0000e+00
<mgrwt>
<rscale>  4 0.18052804E+03</rscale>
<asrwt>0</asrwt>
<pdfrwt beam="1">  1       21 0.46231546E-01 0.18052804E+03</pdfrwt>
<pdfrwt beam="2">  1       21 0.83335277E-01 0.18052804E+03</pdfrwt>
<totfact> 0.56726689E+03</totfact>
</mgrwt>
</event>
<event>
 6      1 +2.5168241e+02 1.91418400e+02 7.54677100e-03 1.11316500e-01
       21 -1    0    0  505  502 +0.0000000000e+00 +0.0000000000e+00 +8.9840314238e+02 8.9840314238e+02 0.0000000000e+00 0.0000e+00 1.0000e+00
       21 -1    0    0  504  503 -0.0000000000e+00 -0.0000000000e+00 -1.8983966904e+02 1.8983966904e+02 0.0000000000e+00 0.0000e+00 -1.0000e+00
        6  1    1    2  501    0 -7.2606998924e+01 +8.7309898973e+01 +4.7881396970e+02 5.2161922159e+02 1.7300000000e+02 0.0000e+00 -1.0000e+00
       -6  1    1    2    0  502 +8.0144221968e+01 +4.9610850992e+01 +2.8228988001e+02 3.4423961017e+02 1.7300000000e+02 0.0000e+00 1.0000e+00
       21  1    1    2  504  501 +6.7955764082e+00 -6.9358894433e+01 +5.8920070556e+01 9.1260127164e+01 0.0000000000e+00 0.0000e+00 1.0000e+00
       21  1    1    2  505  503 -1.4332799452e+01 -6.7561855532e+01 -1.1146044693e+02 1.3112385249e+02 0.0000000000e+00 0.0000e+00 -1.0000e+00
<mgrwt>
<rscale>  4 0.19141843E+03</rscale>
<asrwt>0</asrwt>
<pdfrwt beam="1">  1       21 0.13821587E+00 0.19141843E+03</pdfrwt>
<pdfrwt beam="2">  1       21 0.29206104E-01 0.19141843E+03</pdfrwt>
<totfact> 0.41570982E+03</totfact>
</mgrwt>
</event>
<event>
 6      1 +2.5168241e+02 1.92620700e+02 7.54677100e-03 1.13358800e-01
       21 -1    0    0  501  502 +0.0000000000e+00 +0.0000000000e+00 +7.3627879191e+02 7.3627879191e+02 0.0000000000e+00 0.0000e+00 1.0000e+00
       21 -1    0    0  505  503 -0.0000000000e+00 -0.0000000000e+00 -4.1629537736e+02 4.1629537736e+02 0.0000000000e+00 0.0000e+00 1.0000e+00
        6  1    1    2  501    0 -1.5271485555e+00 +1.4408187626e+01 -3.4414114699e+01 1.7698378271e+02 1.7300000000e+02 0.0000e+00 -1.0000e+00
       -6  1    1    2    0  503 +1.6130173565e+02 +1.0248161557e+02 -1.7761733175e+02 3.1304576022e+02 1.7300000000e+02 0.0000e+00 1.0000e+00
       21  1    1    2  504  502 -9.2704553725e+01 -8.4724409746e+01 +5.6671568155e+02 5.8046448952e+02 0.0000000000e+00 0.0000e+00 1.0000e+00
       21  1    1    2  505  504 -6.7070033366e+01 -3.2165393454e+01 -3.4700820548e+01 8.2080136808e+01 0.0000000000e+00 0.0000e+00 -1.0000e+00
<mgrwt>
<rscale>  4 0.19262069E+03</rscale>
<asrwt>0</asrwt>
<pdfrwt beam="1">  1       21 0.11327366E+00 0.19262069E+03</pdfrwt>
<pdfrwt beam="2">  1       21 0.64045443E-01 0.19262069E+03</pdfrwt>
<totfact> 0.13691337E+03</totfact>
</mgrwt>
</event>
<event>
 6      1 +2.5168241e+02 2.77273600e+02 7.54677100e-03 1.08788200e-01
       21 -1    0    0  505  502 +0.0000000000e+00 +0.0000000000e+00 +6.6856043713e+02 6.6856043713e+02 0.0000000000e+00 0.0000e+00 -1.0000e+00
       21 -1    0    0  504  503 -0.0000000000e+00 -0.0000000000e+00 -1.3504632309e+03 1.3504632309e+03 0.0000000000e+00 0.0000e+00 1.0000e+00
        6  1    1    2  501    0 -1.2301581668e+02 -5.3140768334e+01 +7.0902862879e+01 2.3002836429e+02 1.7300000000e+02 0.0000e+00 1.0000e+00
       -6  1    1    2    0  502 +1.1549266748e+02 -1.6462829984e+02 +4.7227112913e+02 5.4167338200e+02 1.7300000000e+02 0.0000e+00 -1.0000e+00
       21  1    1    2  504  501 +1.7038271437e+01 +1.2513887377e+02 -4.7560221636e+02 4.9208485918e+02 0.0000000000e+00 0.0000e+00 1.0000e+00
       21  1    1    2  505  503 -9.5151222357e+00 +9.2630194402e+01 -7.4947456942e+02 7.5523706257e+02 0.0000000000e+00 0.0000e+00 1.0000e+00
<mgrwt>
<rscale>  4 0.26134080E+03</rscale>
<asrwt>0</asrwt>
<pdfrwt beam="1">  1       21 0.10285545E+00 0.27727356E+03</pdfrwt>
<pdfrwt beam="2">  1       21 0.20776357E+00 0.27727356E+03</pdfrwt>
<totfact> 0.82901732E+01</totfact>
</mgrwt>
</event>
<event>
 6      1 +2.5168241e+02 1.87239400e+02 7.54677100e-03 1.07852700e-01
       21 -1    0    0  505  502 +0.0000000000e+00 +0.0000000000e+00 +4.6052023543e+02 4.6052023543e+02 0.0000000000e+00 0.0000e+00 1.0000e+00
       21 -1    0    0  502  503 -0.0000000000e+00 -0.0000000000e+00 -2.4221442321e+02 2.4221442321e+02 0.0000000000e+00 0.0000e+00 1.0000e+00
        6  1    1    2  501    0 +7.5525627491e+01 -3.4694821764e+01 +2.1044684384e+01 1.9307959448e+02 1.7300000000e+02 0.0000e+00 -1.0000e+00
       -6  1    1    2    0  503 -2.5882330964e+01 +6.9098629417e+01 -8.9142839844e+01 2.0813447946e+02 1.7300000000e+02 0.0000e+00 1.0000e+00
       21  1    1    2  504  501 -2.4542060121e+01 -2.1986079821e+01 +3.3209845012e+01 4.6782413647e+01 0.0000000000e+00 0.0000e+00 1.0000e+00
       21  1    1    2  505  504 -2.5101236406e+01 -1.2417727832e+01 +2.5319412268e+02 2.5473817105e+02 0.0000000000e+00 0.0000e+00 1.0000e+00
<mgrwt>
<rscale>  4 0.18723940E+03</rscale>
<asrwt>0</asrwt>
<pdfrwt beam="1">  1       21 0.70849267E-01 0.18723940E+03</pdfrwt>
<pdfrwt beam="2">  1       21 0.37263758E-01 0.18723940E+03</pdfrwt>
<totfact> 0.12576147E+04</totfact>
</mgrwt>
</event>
<event>
 6      1 +2.5168241e+02 2.47512800e+02 7.54677100e-03 1.13358800e-01
       21 -1    0    0  501  502 +0.0000000000e+00 +0.0000000000e+00 +2.4686723442e+03 2.4686723442e+03 0.0000000000e+00 0.0000e+00 -1.0000e+00
       21 -1    0    0  505  503 -0.0000000000e+00 -0.0000000000e+00 -5.1638367083e+01 5.1638367083e+01 0.0000000000e+00 0.0000e+00 1.0000e+00
        6  1    1    2  501    0 +4.5102943302e+01 +1.6206642381e+02 +1.8991449908e+03 1.9144138783e+03 1.7300000000e+02 0.0000e+00 -1.0000e+00
       -6  1    1    2    0  503 -4.2416574832e+01 -1.5909951167e+02 +3.6258675568e+02 4.3417735527e+02 1.7300000000e+02 0.0000e+00 1.0000e+00
       21  1    1    2  504  502 -1.0350476917e+01 +1.8289900844e+01 +1.4563272344e+02 1.4714123481e+02 0.0000000000e+00 0.0000e+00 -1.0000e+00
       21  1    1    2  505  504 +7.6641084474e+00 -2.1256812988e+01 +9.6695072085e+00 2.4578242947e+01 0.0000000000e+00 0.0000e+00 1.0000e+00
<mgrwt>
<rscale>  4 0.24751278E+03</rscale>
<asrwt>0</asrwt>
<pdfrwt beam="1">  1       21 0.37979565E+00 0.24751278E+03</pdfrwt>
<pdfrwt beam="2">  1       21 0.79443661E-02 0.24751278E+03</pdfrwt>
<totfact> 0.13113520E+03</totfact>
</mgrwt>
</event>
<event>
 6      1 +2.5168241e+02 2.46915900e+02 7.54677100e-03 1.17341900e-01
       21 -1    0    0  505  502 +0.0000000000e+00 +0.0000000000e+00 +5.3658080284e+02 5.3658080284e+02 0.0000000000e+00 0.0000e+00 1.0000e+00
       21 -1    0    0  504  503 -0.0000000000e+00 -0.0000000000e+00 -2.7346267901e+02 2.7346267901e+02 0.0000000000e+00 0.0000e+00 1.0000e+00
        6  1    1    2  501    0 -1.5588876780e+02 -5.0684296963e+01 -4.1082631122e+01 2.4184083291e+02 1.7300000000e+02 0.0000e+00 1.0000e+00
       -6  1    1    2    0  503 +1.5134393031e+02 +1.6377392054e+02 +1.4907969359e+02 3.1918746424e+02 1.7300000000e+02 0.0000e+00 -1.0000e+00
       21  1    1    2  504  502 -3.4623846653e+01 -1.0448551266e+01 +1.3184560120e+02 1.3671593008e+02 0.0000000000e+00 0.0000e+00 1.0000e+00
       21  1    1    2  505  501 +3.9168684145e+01 -1.0264107231e+02 +2.3275460163e+01 1.1229925462e+02 0.0000000000e+00 0.0000e+00 1.0000e+00
<mgrwt>
<rscale>  4 0.24691591E+03</rscale>
<asrwt>0</asrwt>
<pdfrwt beam="1">  1       21 0.82550892E-01 0.24691591E+03</pdfrwt>
<pdfrwt beam="2">  1       21 0.42071182E-01 0.24691591E+03</pdfrwt>
<totfact> 0.67135353E+03</totfact>
</mgrwt>
</event>
<event>
 6      1 +2.5168241e+02 2.18852600e+02 7.54677100e-03 1.17109600e-01
       21 -1    0    0  504  502 +0.0000000000e+00 +0.0000000000e+00 +2.0813698865e+02 2.0813698865e+02 0.0000000000e+00 0.0000e+00 -1.0000e+00
       21 -1    0    0  501  503 -0.0000000000e+00 -0.0000000000e+00 -3.7568834215e+02 3.7568834215e+02 0.0000000000e+00 0.0000e+00 1.0000e+00
        6  1    1    2  501    0 +1.0435351863e+02 +1.2233896583e+02 -1.8131269499e+02 2.9775790968e+02 1.7300000000e+02 0.0000e+00 1.0000e+00
       -6  1    1    2    0  505 -7.2921625679e+01 -6.5733491256e+01 +2.4178323702e+01 2.0037975622e+02 1.7300000000e+02 0.0000e+00 -1.0000e+00
       21  1    1    2  504  503 +3.8636866998e+00 -2.4289828599e+01 -2.5581999935e+01 3.5487498770e+01 0.0000000000e+00 0.0000e+00 1.0000e+00
       21  1    1    2  505  502 -3.5295579648e+01 -3.2315645972e+01 +1.5165017730e+01 5.0200166135e+01 0.0000000000e+00 0.0000e+00 -1.0000e+00
<mgrwt>
<rscale>  4 0.21885260E+03</rscale>
<asrwt>0</asrwt>
<pdfrwt beam="1">  1       21 0.32021075E-01 0.21885260E+03</pdfrwt>
<pdfrwt beam="2">  1       21 0.57798206E-01 0.21885260E+03</pdfrwt>
<totfact> 0.25951656E+04</totfact>
</mgrwt>
</event>
<event>
 6      1 +2.5168241e+02 2.62423800e+02 7.54677100e-03 1.08788200e-01
       21 -1    0    0  505  502 +0.0000000000e+00 +0.0000000000e+00 +8.4384393259e+02 8.4384393259e+02 0.0000000000e+00 0.0000e+00 1.0000e+00
       21 -1    0    0  504  503 -0.0000000000e+00 -0.0000000000e+00 -1.4729221210e+02 1.4729221210e+02 0.0000000000e+00 0.0000e+00 1.0000e+00
        6  1    1    2  501    0 +3.7678005963e+01 +2.1424086205e+02 +4.5665816335e+02 5.3458811926e+02 1.7300000000e+02 0.0000e+00 1.0000e+00
       -6  1    1    2    0  502 +5.1705953037e+01 -1.7447688068e+02 +2.4684604169e+02 3.5210460913e+02 1.7300000000e+02 0.0000e+00 1.0000e+00
       21  1    1    2  504  501 -2.7108730996e+01 -2.8202079597e+01 +6.5978277628e+00 3.9670794308e+01 0.0000000000e+00 0.0000e+00 1.0000e+00
       21  1    1    2  505  503 -6.2275228004e+01 -1.1561901771e+01 -1.3550312303e+01 6.4772621987e+01 0.0000000000e+00 0.0000e+00 1.0000e+00
<mgrwt>
<rscale>  4 0.26242379E+03</rscale>
<asrwt>0</asrwt>
<pdfrwt beam="1">  1       21 0.12982214E+00 0.26242379E+03</pdfrwt>
<pdfrwt beam="2">  1       21 0.22660341E-01 0.26242379E+03</pdfrwt>
<totfact> 0.75548875E+03</totfact>
</mgrwt>
</event>
<event>
 6      1 +2.5168241e+02 2.63282800e+02 7.54677100e-03 1.16871900e-01
       21 -1    0    0  504  502 +0.0000000000e+00 +0.0000000000e+00 +8.1746367679e+01 8.1746367679e+01 0.0000000000e+00 0.0000e+00 -1.0000e+00
       21 -1    0    0  502  503 -0.0000000000e+00 -0.0000000000e+00 -1.5182986614e+03 1.5182986614e+03 0.0000000000e+00 0.0000e+00 1.0000e+00
        6  1    1    2  501    0 +1.0539910893e+02 +8.6288224767e+01 -3.9613961918e+02 4.5322205130e+02 1.7300000000e+02 0.0000e+00 -1.0000e+00
       -6  1    1    2    0  503 -1.5741918141e+02 -2.0581237347e+02 -8.8030702429e+02 9.3381421534e+02 1.7300000000e+02 0.0000e+00 1.0000e+00
       21  1    1    2  504  505 -2.2376775457e-01 +5.4692102593e+01 -8.3808881315e+01 1.0007599485e+02 0.0000000000e+00 0.0000e+00 1.0000e+00
       21  1    1    2  505  501 +5.2243840228e+01 +6.4832046113e+01 -7.6296768908e+01 1.1293276757e+02 0.0000000000e+00 0.0000e+00 1.0000e+00
<mgrwt>
<rscale>  4 0.26328282E+03</rscale>
<asrwt>0</asrwt>
<pdfrwt beam="1">  1       21 0.12576365E-01 0.26328282E+03</pdfrwt>
<pdfrwt beam="2">  1       21 0.23358440E+00 0.26328282E+03</pdfrwt>
<totfact> 0.42187212E+03</totfact>
</mgrwt>
</event>
<event>
 6      1 +2.5168241e+02 1.73986100e+02 7.54677100e-03 1.11476600e-01
       21 -1    0    0  503  502 +0.0000000000e+00 +0.0000000000e+00 +1.5883189284e+02 1.5883189284e+02 0.0000000000e+00 0.0000e+00 1.0000e+00
       21 -1    0    0  505  503 -0.0000000000e+00 -0.0000000000e+00 -2.4828218312e+03 2.4828218312e+03 0.0000000000e+00 0.0000e+00 1.0000e+00
        6  1    1    2  501    0 -7.5426539651e+01 -7.6667515887e+01 -6.7523067115e+02 7.0528896925e+02 1.7300000000e+02 0.0000e+00 1.0000e+00
       -6  1    1    2    0  502 -1.0850000878e+01 -2.6304199724e+01 +6.8120074323e+01 1.8809300351e+02 1.7300000000e+02 0.0000e+00 1.0000e+00
       21  1    1    2  504  501 +5.8233626254e+01 +9.9159910666e+01 -1.9683960788e+02 2.2796858192e+02 0.0000000000e+00 0.0000e+00 1.0000e+00
       21  1    1    2  505  504 +2.8042914275e+01 +3.8118049449e+00 -1.5200397337e+03 1.5203031694e+03 0.0000000000e+00 0.0000e+00 1.0000e+00
<mgrwt>
<rscale>  4 0.17398614E+03</rscale>
<asrwt>0</asrwt>
<pdfrwt beam="1">  1       21 0.24435678E-01 0.17398614E+03</pdfrwt>
<pdfrwt beam="2">  1       21 0.38197256E+00 0.17398614E+03</pdfrwt>
<totfact> 0.18417021E+02</totfact>
</mgrwt>
</event>
<event>
 6      1 +2.5168241e+02 1.83022200e+02 7.54677100e-03 1.16871900e-01
       21 -1    0    0  505  502 +0.0000000000e+00 +0.0000000000e+00 +6.1584664220e+01 6.1584664220e+01 0.0000000000e+00 0.0000e+00 1.0000e+00
       21 -1    0    0  502  503 -0.0000000000e+00 -0.0000000000e+00 -9.5156322767e+02 9.5156322767e+02 0.0000000000e+00 0.0000e+00 1.0000e+00
        6  1    1    2  501    0 -3.7507109756e+01 -1.4391595232e+01 -4.6087103294e+02 4.9390789657e+02 1.7300000000e+02 0.0000e+00 -1.0000e+00
       -6  1    1    2    0  503 +5.3797009566e+01 +7.5138807965e+01 -4.0135997843e+02 4.4672003647e+02 1.7300000000e+02 0.0000e+00 1.0000e+00
       21  1    1    2  504  501 -9.9523707439e+00 -2.2574038474e+01 -2.2647763263e+01 3.3489671203e+01 0.0000000000e+00 0.0000e+00 1.0000e+00
       21  1    1    2  505  504 -6.3375290660e+00 -3.8173174258e+01 -5.0997888226e+00 3.9030287645e+01 0.0000000000e+00 0.0000e+00 1.0000e+00
<mgrwt>
<rscale>  4 0.18302217E+03</rscale>
<asrwt>0</asrwt>
<pdfrwt beam="1">  1       21 0.94745642E-02 0.18302217E+03</pdfrwt>
<pdfrwt beam="2">  1       21 0.14639433E+00 0.18302217E+03</pdfrwt>
<totfact> 0.28605918E+04</totfact>
</mgrwt>
</event>
</LesHouchesEvents>
