<LesHouchesEvents version="3.0">
<header>
<!--
#*********************************************************************
#                                                                    *
#                        MadGraph5_aMC@NLO                           *
#                                                                    *
#                           Going Beyond                             *
#                                                                    *
#                   http://madgraph.hep.uiuc.edu                     *
#                   http://madgraph.phys.ucl.ac.be                   *
#                   http://amcatnlo.cern.ch                          *
#                                                                    *
#                     The MadGraph5_aMC@NLO team                     *
#                                                                    *
#....................................................................*
#                                                                    *
# This file contains all the information necessary to reproduce      *
# the events generated:                                              *
#                                                                    *
# 1. software version                                                *
# 2. proc_card          : code generation info including model       *
# 3. param_card         : model primary parameters in the LH format  *
# 4. run_card           : running parameters (collider and cuts)     *
# 5. pythia_card        : present only if pythia has been run        *
# 6. pgs_card           : present only if pgs has been run           *
# 7. delphes_cards      : present only if delphes has been run       *
#                                                                    *
#                                                                    *
#*********************************************************************
-->
<MGVersion>
#3.5.0_lo_vect
</MGVersion>
<MG5ProcCard>
<![CDATA[
#************************************************************
#*                     MadGraph5_aMC@NLO                    *
#*                                                          *
#*                *                       *                 *
#*                  *        * *        *                   *
#*                    * * * * 5 * * * *                     *
#*                  *        * *        *                   *
#*                *                       *                 *
#*                                                          *
#*                                                          *
#*         VERSION 3.5.0_lo_vect         2023-06-09         *
[1;31m#*                                                          *[1;0m
[1;31m#*          WARNING: UNKNOWN DEVELOPMENT VERSION.           *[1;0m
[1;31m#*            WARNING: DO NOT USE FOR PRODUCTION            *[1;0m
[1;31m#*                                                          *[1;0m
#*                                                          *
#*    The MadGraph5_aMC@NLO Development Team - Find us at   *
#*    https://server06.fynu.ucl.ac.be/projects/madgraph     *
#*                                                          *
#************************************************************
#*                                                          *
#*               Command File for MadGraph5_aMC@NLO         *
#*                                                          *
#*     run as ./bin/mg5_aMC  filename                       *
#*                                                          *
#************************************************************
set group_subprocesses Auto
set ignore_six_quark_processes False
set low_mem_multicore_nlo_generation False
set complex_mass_scheme False
set include_lepton_initiated_processes False
set gauge unitary
set loop_optimized_output True
set loop_color_flows False
set max_npoint_for_channel 0
set default_unset_couplings 99
set max_t_for_channel 99
set nlo_mixed_expansion True
set stdout_level DEBUG
set zerowidth_tchannel F
generate g g > t t~ g g g
define p = g u c d s u~ c~ d~ s~
define j = g u c d s u~ c~ d~ s~
define l+ = e+ mu+
define l- = e- mu-
define vl = ve vm vt
define vl~ = ve~ vm~ vt~
output madevent CODEGEN_mad_gg_ttggg --hel_recycling=False --vector_si\
ze=16384 --me_exporter=standalone_cudacpp
]]>
</MG5ProcCard>
<MGProcCard>
#*********************************************************************
#                        MadGraph/MadEvent                           *
#                   http://madgraph.hep.uiuc.edu                     *
#                                                                    *
#                          proc_card.dat                             *
#*********************************************************************
#                                                                    *
#            This Files is generated by MADGRAPH 5                   *
#                                                                    *
# WARNING: This Files is generated for MADEVENT (compatibility issue)*
#          This files is NOT a valid MG4 proc_card.dat               *
#          Running this in MG4 will NEVER reproduce the result of MG5*
#                                                                    *
#*********************************************************************
#*********************************************************************
# Process(es) requested : mg2 input                                  *
#*********************************************************************
# Begin PROCESS # This is TAG. Do not modify this line
g g > t t~ g g g           #Process
# Be carefull the coupling are here in MG5 convention
          
end_coup           # End the couplings input

done               # this tells MG there are no more procs
# End PROCESS  # This is TAG. Do not modify this line
#*********************************************************************
# Model information                                                  *
#*********************************************************************
# Begin MODEL  # This is TAG. Do not modify this line
sm
# End   MODEL  # This is TAG. Do not modify this line
#*********************************************************************
# Start multiparticle definitions                                    *
#*********************************************************************
# Begin MULTIPARTICLES # This is TAG. Do not modify this line

# End  MULTIPARTICLES # This is TAG. Do not modify this line
</MGProcCard>
<MGRunCard>
<![CDATA[
#*********************************************************************
#                       MadGraph5_aMC@NLO                            *
#                                                                    *
#                     run_card.dat MadEvent                          *
#                                                                    *
#  This file is used to set the parameters of the run.               *
#                                                                    *
#  Some notation/conventions:                                        *
#                                                                    *
#   Lines starting with a '# ' are info or comments                  *
#                                                                    *
#   mind the format:   value    = variable     ! comment             *
#                                                                    *
#   To display more options, you can type the command:               *
#      update to_full                                                *
#*********************************************************************
#                                                                    
#*********************************************************************
# Tag name for the run (one word)                                    *
#*********************************************************************
  tag_1     = run_tag ! name of the run 
#*********************************************************************
# Number of events and rnd seed                                      *
# Warning: Do not generate more than 1M events in a single run       *
#*********************************************************************
  100 = nevents ! Number of unweighted events requested 
 21 = iseed   ! rnd seed (0=assigned automatically=default))
#*********************************************************************
# Collider type and energy                                           *
# lpp: 0=No PDF, 1=proton, -1=antiproton,                            *
#                2=elastic photon of proton/ion beam                 *
#             +/-3=PDF of electron/positron beam                     *
#             +/-4=PDF of muon/antimuon beam                         *
#*********************************************************************
     1        = lpp1    ! beam 1 type 
     1        = lpp2    ! beam 2 type
     6500.0     = ebeam1  ! beam 1 total energy in GeV
     6500.0     = ebeam2  ! beam 2 total energy in GeV
# To see polarised beam options: type "update beam_pol"

#*********************************************************************
# PDF CHOICE: this automatically fixes alpha_s and its evol.         *
# pdlabel: lhapdf=LHAPDF (installation needed) [1412.7420]           *
#          iww=Improved Weizsaecker-Williams Approx.[hep-ph/9310350] *
#          eva=Effective W/Z/A Approx.       [2111.02442]            *
#          edff=EDFF in gamma-UPC            [eq.(11) in 2207.03012] *
#          chff=ChFF in gamma-UPC            [eq.(13) in 2207.03012] *
#          none=No PDF, same as lhapdf with lppx=0                   *
#*********************************************************************
     nn23lo1    = pdlabel     ! PDF set 
     230000    = lhaid     ! if pdlabel=lhapdf, this is the lhapdf number
# To see heavy ion options: type "update ion_pdf"
#*********************************************************************
# Renormalization and factorization scales                           *
#*********************************************************************
 False = fixed_ren_scale  ! if .true. use fixed ren scale
     False = fixed_fac_scale  ! if .true. use fixed fac scale
 91.188  = scale            ! fixed ren scale
 91.188  = dsqrt_q2fact1    ! fixed fact scale for pdf1
 91.188  = dsqrt_q2fact2    ! fixed fact scale for pdf2
 -1 = dynamical_scale_choice ! Choose one of the preselected dynamical choices
 1.0  = scalefact        ! scale factor for event-by-event scales

 
#*********************************************************************
# Type and output format
#*********************************************************************
  False     = gridpack  !True = setting up the grid pack
  -1.0 = time_of_flight ! threshold (in mm) below which the invariant livetime is not written (-1 means not written)
  average =  event_norm       ! average/sum. Normalization of the weight in the LHEF
# To see MLM/CKKW  merging options: type "update MLM" or "update CKKW"

#*********************************************************************
#
#*********************************************************************
# Phase-Space Optimization strategy (basic options)
#*********************************************************************
   0  = nhel          ! using helicities importance sampling or not.
                             ! 0: sum over helicity, 1: importance sampling
   1  = sde_strategy  ! default integration strategy (hep-ph/2021.00773)
                             ! 1 is old strategy (using amp square)
			     ! 2 is new strategy (using only the denominator)
# To see advanced option for Phase-Space optimization: type "update psoptim"			     
#*********************************************************************
# Customization (custom cuts/scale/bias/...)                         *
# list of files containing fortran function that overwrite default   *
#*********************************************************************
  = custom_fcts ! List of files containing user hook function
#*******************************                                                 
# Parton level cuts definition *
#*******************************
  0.0  = dsqrt_shat ! minimal shat for full process
#                                                                    
#
#*********************************************************************
# BW cutoff (M+/-bwcutoff*Gamma) ! Define on/off-shell for "$" and decay  
#*********************************************************************
  15.0  = bwcutoff      ! (M+/-bwcutoff*Gamma)
#*********************************************************************
# Standard Cuts                                                      *
#*********************************************************************
# Minimum and maximum pt's (for max, -1 means no cut)                *
#*********************************************************************
 20.0  = ptj       ! minimum pt for the jets 
 -1.0  = ptjmax    ! maximum pt for the jets
 {} = pt_min_pdg ! pt cut for other particles (use pdg code). Applied on particle and anti-particle
 {}	= pt_max_pdg ! pt cut for other particles (syntax e.g. {6: 100, 25: 50}) 
#
# For display option for energy cut in the partonic center of mass frame type 'update ecut'
#
#*********************************************************************
# Maximum and minimum absolute rapidity (for max, -1 means no cut)   *
#*********************************************************************
 5.0 = etaj    ! max rap for the jets 
 {} = eta_min_pdg ! rap cut for other particles (use pdg code). Applied on particle and anti-particle
 {} = eta_max_pdg ! rap cut for other particles (syntax e.g. {6: 2.5, 23: 5})
#*********************************************************************
# Minimum and maximum DeltaR distance                                *
#*********************************************************************
 0.4 = drjj    ! min distance between jets 
 -1.0  = drjjmax ! max distance between jets
#*********************************************************************
# Minimum and maximum invariant mass for pairs                       *
#*********************************************************************
 0.0   = mmjj    ! min invariant mass of a jet pair 
 -1.0  = mmjjmax ! max invariant mass of a jet pair
 {} = mxx_min_pdg ! min invariant mass of a pair of particles X/X~ (e.g. {6:250})
 {'default': False} = mxx_only_part_antipart ! if True the invariant mass is applied only 
                       ! to pairs of particle/antiparticle and not to pairs of the same pdg codes.  
#*********************************************************************
# Inclusive cuts                                                     *
#*********************************************************************
 0.0  = ptheavy   ! minimum pt for at least one heavy final state
 0.0  = xptj ! minimum pt for at least one jet  
 #*********************************************************************
 # Control the pt's of the jets sorted by pt                          *
 #*********************************************************************
 0.0   = ptj1min ! minimum pt for the leading jet in pt
 0.0   = ptj2min ! minimum pt for the second jet in pt
 0.0   = ptj3min ! minimum pt for the third jet in pt
 -1.0  = ptj1max ! maximum pt for the leading jet in pt 
 -1.0  = ptj2max ! maximum pt for the second jet in pt
 -1.0  = ptj3max ! maximum pt for the third jet in pt
 0   = cutuse  ! reject event if fails any (0) / all (1) jet pt cuts
 #*********************************************************************
 # Control the Ht(k)=Sum of k leading jets                            *
 #*********************************************************************
 0.0   = htjmin ! minimum jet HT=Sum(jet pt)
 -1.0  = htjmax ! maximum jet HT=Sum(jet pt)
 0.0   = ihtmin  !inclusive Ht for all partons (including b)
 -1.0  = ihtmax  !inclusive Ht for all partons (including b)
 0.0   = ht2min ! minimum Ht for the two leading jets
 0.0   = ht3min ! minimum Ht for the three leading jets
 -1.0  = ht2max ! maximum Ht for the two leading jets
 -1.0  = ht3max ! maximum Ht for the three leading jets
 #*********************************************************************
 # WBF cuts                                                           *
 #*********************************************************************
 0.0   = xetamin ! minimum rapidity for two jets in the WBF case  
 0.0   = deltaeta ! minimum rapidity for two jets in the WBF case 
#*********************************************************************
# maximal pdg code for quark to be considered as a light jet         *
# (otherwise b cuts are applied)                                     *
#*********************************************************************
 4 = maxjetflavor    ! Maximum jet pdg code
#*********************************************************************
#
#*********************************************************************
# Store info for systematics studies                                 *
# WARNING: Do not use for interference type of computation           *
#*********************************************************************
   True  = use_syst      ! Enable systematics studies
#
systematics = systematics_program ! none, systematics [python], SysCalc [depreceted, C++]
['--mur=0.5,1,2', '--muf=0.5,1,2', '--pdf=errorset'] = systematics_arguments ! see: https://cp3.irmp.ucl.ac.be/projects/madgraph/wiki/Systematics#Systematicspythonmodule

#*********************************************************************
# Options for the cudacpp plugin
#*********************************************************************

# Set cudacpp-specific values of non-cudacpp-specific options
-O3 -ffast-math -fbounds-check = global_flag ! build flags for Fortran code (for a fair comparison to cudacpp)

# New cudacpp-specific options (default values are defined in banner.py)
CPP = cudacpp_backend ! valid backends are FORTRAN, CPP, CUDA
]]>
</MGRunCard>
<slha>
######################################################################
## PARAM_CARD AUTOMATICALY GENERATED BY MG5 FOLLOWING UFO MODEL   ####
######################################################################
##                                                                  ##
##  Width set on Auto will be computed following the information    ##
##        present in the decay.py files of the model.               ##
##        See  arXiv:1402.1178 for more details.                    ##
##                                                                  ##
######################################################################

###################################
## INFORMATION FOR MASS
###################################
Block mass 
    5 4.700000e+00 # MB 
    6 1.730000e+02 # MT 
   15 1.777000e+00 # MTA 
   23 9.118800e+01 # MZ 
   25 1.250000e+02 # MH 
## Dependent parameters, given by model restrictions.
## Those values should be edited following the 
## analytical expression. MG5 ignores those values 
## but they are important for interfacing the output of MG5
## to external program such as Pythia.
  1 0.000000e+00 # d : 0.0 
  2 0.000000e+00 # u : 0.0 
  3 0.000000e+00 # s : 0.0 
  4 0.000000e+00 # c : 0.0 
  11 0.000000e+00 # e- : 0.0 
  12 0.000000e+00 # ve : 0.0 
  13 0.000000e+00 # mu- : 0.0 
  14 0.000000e+00 # vm : 0.0 
  16 0.000000e+00 # vt : 0.0 
  21 0.000000e+00 # g : 0.0 
  22 0.000000e+00 # a : 0.0 
  24 8.041900e+01 # w+ : cmath.sqrt(MZ__exp__2/2. + cmath.sqrt(MZ__exp__4/4. - (aEW*cmath.pi*MZ__exp__2)/(Gf*sqrt__2))) 

###################################
## INFORMATION FOR SMINPUTS
###################################
Block sminputs 
    1 1.325070e+02 # aEWM1 
    2 1.166390e-05 # Gf 
    3 1.180000e-01 # aS (Note that Parameter not used if you use a PDF set) 

###################################
## INFORMATION FOR YUKAWA
###################################
Block yukawa 
    5 4.700000e+00 # ymb 
    6 1.730000e+02 # ymt 
   15 1.777000e+00 # ymtau 

###################################
## INFORMATION FOR DECAY
###################################
DECAY   6 1.491500e+00 # WT 
DECAY  23 2.441404e+00 # WZ 
DECAY  24 2.047600e+00 # WW 
DECAY  25 6.382339e-03 # WH 
## Dependent parameters, given by model restrictions.
## Those values should be edited following the 
## analytical expression. MG5 ignores those values 
## but they are important for interfacing the output of MG5
## to external program such as Pythia.
DECAY  1 0.000000e+00 # d : 0.0 
DECAY  2 0.000000e+00 # u : 0.0 
DECAY  3 0.000000e+00 # s : 0.0 
DECAY  4 0.000000e+00 # c : 0.0 
DECAY  5 0.000000e+00 # b : 0.0 
DECAY  11 0.000000e+00 # e- : 0.0 
DECAY  12 0.000000e+00 # ve : 0.0 
DECAY  13 0.000000e+00 # mu- : 0.0 
DECAY  14 0.000000e+00 # vm : 0.0 
DECAY  15 0.000000e+00 # ta- : 0.0 
DECAY  16 0.000000e+00 # vt : 0.0 
DECAY  21 0.000000e+00 # g : 0.0 
DECAY  22 0.000000e+00 # a : 0.0
</slha>
<MGGenerationInfo>
#  Number of Events        :       100
#  Integrated weight (pb)  :       126.27629306410002
</MGGenerationInfo>
</header>
<init>
2212 2212 6.500000e+03 6.500000e+03 0 0 247000 247000 -4 1
1.262763e+02 3.221017e-01 1.262763e+02 1
<generator name='MadGraph5_aMC@NLO' version='3.5.0_lo_vect'>please cite 1405.0301 </generator>
</init>
<event>
 7      1 +1.2627629e+02 2.42113000e+02 7.54677100e-03 9.91481900e-02
       21 -1    0    0  501  502 +0.0000000000e+00 +0.0000000000e+00 +1.5504521106e+03 1.5504521106e+03 0.0000000000e+00 0.0000e+00 -1.0000e+00
       21 -1    0    0  505  503 -0.0000000000e+00 -0.0000000000e+00 -1.6244231476e+02 1.6244231476e+02 0.0000000000e+00 0.0000e+00 -1.0000e+00
        6  1    1    2  501    0 -1.2326850279e+01 -2.0874558127e+01 +9.3291708587e+02 9.4913170189e+02 1.7300000000e+02 0.0000e+00 -1.0000e+00
       -6  1    1    2    0  506 +1.0841843335e+01 -1.9084989313e+02 +2.5819258776e+02 3.6487482737e+02 1.7300000000e+02 0.0000e+00 -1.0000e+00
       21  1    1    2  504  502 +6.9441992591e+01 +5.3229545842e+01 +5.6675299579e+01 1.0424809096e+02 0.0000000000e+00 0.0000e+00 -1.0000e+00
       21  1    1    2  505  504 -4.0838716906e+01 +1.5544957343e+02 +1.8321412018e+02 2.4372071006e+02 0.0000000000e+00 0.0000e+00 -1.0000e+00
       21  1    1    2  506  503 -2.7118268740e+01 +3.0453319879e+00 -4.2989297521e+01 5.0919095119e+01 0.0000000000e+00 0.0000e+00 -1.0000e+00
<mgrwt>
<rscale>  5 0.22290210E+03</rscale>
<asrwt>0</asrwt>
<pdfrwt beam="1">  1       21 0.23853108E+00 0.24211304E+03</pdfrwt>
<pdfrwt beam="2">  1       21 0.24991126E-01 0.24211304E+03</pdfrwt>
<totfact> 0.11171112E+03</totfact>
</mgrwt>
</event>
<event>
 7      1 +1.2627629e+02 3.50417600e+02 7.54677100e-03 1.10770100e-01
       21 -1    0    0  501  502 +0.0000000000e+00 +0.0000000000e+00 +7.1275872799e+02 7.1275872799e+02 0.0000000000e+00 0.0000e+00 -1.0000e+00
       21 -1    0    0  506  503 -0.0000000000e+00 -0.0000000000e+00 -1.0738745553e+03 1.0738745553e+03 0.0000000000e+00 0.0000e+00 -1.0000e+00
        6  1    1    2  501    0 +1.6220349568e+02 -3.1456466822e+01 +1.9902364710e+02 3.1118948475e+02 1.7300000000e+02 0.0000e+00 -1.0000e+00
       -6  1    1    2    0  505 -2.8750035687e+01 +3.5729664431e+02 +2.8029393989e+02 4.8680709662e+02 1.7300000000e+02 0.0000e+00 1.0000e+00
       21  1    1    2  504  502 -9.4555199077e+01 -4.1939254558e+01 -4.5780110091e+02 4.6934149054e+02 0.0000000000e+00 0.0000e+00 -1.0000e+00
       21  1    1    2  505  503 -2.0760947638e+01 -2.5745321627e+02 -4.0488951900e+02 4.8025899066e+02 0.0000000000e+00 0.0000e+00 -1.0000e+00
       21  1    1    2  506  504 -1.8137313279e+01 -2.6447706660e+01 +2.2257205662e+01 3.9036220673e+01 0.0000000000e+00 0.0000e+00 1.0000e+00
<mgrwt>
<rscale>  5 0.31579549E+03</rscale>
<asrwt>0</asrwt>
<pdfrwt beam="1">  1       21 0.10965519E+00 0.35041761E+03</pdfrwt>
<pdfrwt beam="2">  1       21 0.16521147E+00 0.35041761E+03</pdfrwt>
<totfact> 0.13009004E+02</totfact>
</mgrwt>
</event>
<event>
 7      1 +1.2627629e+02 2.01213200e+02 7.54677100e-03 1.06366700e-01
       21 -1    0    0  504  502 +0.0000000000e+00 +0.0000000000e+00 +1.3565025754e+03 1.3565025754e+03 0.0000000000e+00 0.0000e+00 1.0000e+00
       21 -1    0    0  506  503 -0.0000000000e+00 -0.0000000000e+00 -7.1542941237e+02 7.1542941237e+02 0.0000000000e+00 0.0000e+00 -1.0000e+00
        6  1    1    2  501    0 -4.8144197862e+01 -9.1415112311e+01 +3.8273555977e+02 4.3253912570e+02 1.7300000000e+02 0.0000e+00 1.0000e+00
       -6  1    1    2    0  505 -4.3795259236e+01 +9.3215568663e+01 +7.6446621302e+02 7.9053447605e+02 1.7300000000e+02 0.0000e+00 1.0000e+00
       21  1    1    2  504  503 +1.2853847115e+01 +2.8469826616e+01 +1.6149761340e+01 3.5164857522e+01 0.0000000000e+00 0.0000e+00 1.0000e+00
       21  1    1    2  505  502 +5.4711012251e+01 -5.1462552526e+01 -6.6405240200e+02 6.6828682598e+02 0.0000000000e+00 0.0000e+00 -1.0000e+00
       21  1    1    2  506  501 +2.4374597731e+01 +2.1192269558e+01 +1.4177403093e+02 1.4540670257e+02 0.0000000000e+00 0.0000e+00 1.0000e+00
<mgrwt>
<rscale>  5 0.20121321E+03</rscale>
<asrwt>0</asrwt>
<pdfrwt beam="1">  1       21 0.20869270E+00 0.20121321E+03</pdfrwt>
<pdfrwt beam="2">  1       21 0.11006606E+00 0.20121321E+03</pdfrwt>
<totfact> 0.76150304E+01</totfact>
</mgrwt>
</event>
<event>
 7      1 +1.2627629e+02 2.19943400e+02 7.54677100e-03 1.17191400e-01
       21 -1    0    0  505  502 +0.0000000000e+00 +0.0000000000e+00 +1.1685304855e+03 1.1685304855e+03 0.0000000000e+00 0.0000e+00 1.0000e+00
       21 -1    0    0  501  503 -0.0000000000e+00 -0.0000000000e+00 -1.6659455280e+03 1.6659455280e+03 0.0000000000e+00 0.0000e+00 -1.0000e+00
        6  1    1    2  501    0 +1.5398858614e+02 -2.2668100780e+01 -8.7783779997e+02 9.0815996967e+02 1.7300000000e+02 0.0000e+00 -1.0000e+00
       -6  1    1    2    0  502 -1.2160266270e+02 +6.9346563316e+01 -1.1955781035e+02 2.5262466909e+02 1.7300000000e+02 0.0000e+00 -1.0000e+00
       21  1    1    2  504  506 -6.0661385823e+00 +2.0884556087e+01 +6.5805626691e+01 6.9306155747e+01 0.0000000000e+00 0.0000e+00 -1.0000e+00
       21  1    1    2  505  504 +1.3874598355e+01 -2.3991167496e+01 +1.0175894498e+03 1.0179667818e+03 0.0000000000e+00 0.0000e+00 1.0000e+00
       21  1    1    2  506  503 -4.0194383209e+01 -4.3571851127e+01 -5.8341450860e+02 5.8641843721e+02 0.0000000000e+00 0.0000e+00 -1.0000e+00
<mgrwt>
<rscale>  5 0.21994340E+03</rscale>
<asrwt>0</asrwt>
<pdfrwt beam="1">  1       21 0.17977392E+00 0.21994340E+03</pdfrwt>
<pdfrwt beam="2">  1       21 0.25629931E+00 0.21994340E+03</pdfrwt>
<totfact> 0.10610287E+01</totfact>
</mgrwt>
</event>
<event>
 7      1 +1.2627629e+02 1.82986200e+02 7.54677100e-03 1.15986200e-01
       21 -1    0    0  503  502 +0.0000000000e+00 +0.0000000000e+00 +7.0011773608e+02 7.0011773608e+02 0.0000000000e+00 0.0000e+00 -1.0000e+00
       21 -1    0    0  505  503 -0.0000000000e+00 -0.0000000000e+00 -1.5492638134e+02 1.5492638134e+02 0.0000000000e+00 0.0000e+00 1.0000e+00
        6  1    1    2  501    0 +8.7644893181e+01 +5.1315079967e+00 +3.1897484240e+02 3.7333886720e+02 1.7300000000e+02 0.0000e+00 -1.0000e+00
       -6  1    1    2    0  506 -2.4986736360e+01 -5.3927493123e+00 +1.9519359286e+02 2.6207433570e+02 1.7300000000e+02 0.0000e+00 1.0000e+00
       21  1    1    2  504  501 -4.9131086743e+01 -2.4765414734e+01 +1.2893486500e+01 5.6510454303e+01 0.0000000000e+00 0.0000e+00 1.0000e+00
       21  1    1    2  505  504 -1.2897586174e+01 -2.5609352155e+01 -6.2012011148e+01 6.8320393541e+01 0.0000000000e+00 0.0000e+00 -1.0000e+00
       21  1    1    2  506  502 -6.2948390519e-01 +5.0636008204e+01 +8.0141444128e+01 9.4800066686e+01 0.0000000000e+00 0.0000e+00 1.0000e+00
<mgrwt>
<rscale>  5 0.18298618E+03</rscale>
<asrwt>0</asrwt>
<pdfrwt beam="1">  1       21 0.10771042E+00 0.18298618E+03</pdfrwt>
<pdfrwt beam="2">  1       21 0.23834828E-01 0.18298618E+03</pdfrwt>
<totfact> 0.11475432E+04</totfact>
</mgrwt>
</event>
<event>
 7      1 +1.2627629e+02 1.81940800e+02 7.54677100e-03 1.07499700e-01
       21 -1    0    0  505  502 +0.0000000000e+00 +0.0000000000e+00 +4.6400992105e+02 4.6400992105e+02 0.0000000000e+00 0.0000e+00 -1.0000e+00
       21 -1    0    0  501  503 -0.0000000000e+00 -0.0000000000e+00 -7.6449096896e+02 7.6449096896e+02 0.0000000000e+00 0.0000e+00 -1.0000e+00
        6  1    1    2  501    0 -3.1147043810e+01 +1.3321835558e+01 +2.1325778558e+02 2.7668663277e+02 1.7300000000e+02 0.0000e+00 -1.0000e+00
       -6  1    1    2    0  506 +4.6573261298e+01 -7.5201740837e+01 -3.6791689713e+02 4.1607236592e+02 1.7300000000e+02 0.0000e+00 -1.0000e+00
       21  1    1    2  504  503 +9.3759376690e+00 +2.9787235554e+01 -2.5825281013e+02 2.6013400690e+02 0.0000000000e+00 0.0000e+00 1.0000e+00
       21  1    1    2  505  504 +2.2972266404e+00 +3.6929299822e+01 -7.6343296177e+01 8.4837192944e+01 0.0000000000e+00 0.0000e+00 -1.0000e+00
       21  1    1    2  506  502 -2.7099381798e+01 -4.8366300968e+00 +1.8877416994e+02 1.9077069146e+02 0.0000000000e+00 0.0000e+00 1.0000e+00
<mgrwt>
<rscale>  5 0.18194079E+03</rscale>
<asrwt>0</asrwt>
<pdfrwt beam="1">  1       21 0.71386143E-01 0.18194079E+03</pdfrwt>
<pdfrwt beam="2">  1       21 0.11761399E+00 0.18194079E+03</pdfrwt>
<totfact> 0.99572696E+02</totfact>
</mgrwt>
</event>
<event>
 7      1 +1.2627629e+02 1.82667400e+02 7.54677100e-03 1.17382100e-01
       21 -1    0    0  504  502 +0.0000000000e+00 +0.0000000000e+00 +6.9074224530e+02 6.9074224530e+02 0.0000000000e+00 0.0000e+00 -1.0000e+00
       21 -1    0    0  501  503 -0.0000000000e+00 -0.0000000000e+00 -2.7091145570e+02 2.7091145570e+02 0.0000000000e+00 0.0000e+00 1.0000e+00
        6  1    1    2  501    0 -4.4272597768e+01 +7.2182464821e+01 +4.0161065014e+02 4.4541046850e+02 1.7300000000e+02 0.0000e+00 -1.0000e+00
       -6  1    1    2    0  502 +6.3529701495e+01 +5.4888124394e+01 +1.7156593099e+02 2.5770641794e+02 1.7300000000e+02 0.0000e+00 -1.0000e+00
       21  1    1    2  504  505 +1.6952605036e+01 -3.2811249158e+01 +6.5722160830e+00 3.7512170199e+01 0.0000000000e+00 0.0000e+00 1.0000e+00
       21  1    1    2  505  506 -5.5183507530e+01 -1.1054012459e+02 -1.1100178515e+02 1.6608953897e+02 0.0000000000e+00 0.0000e+00 1.0000e+00
       21  1    1    2  506  503 +1.8973798768e+01 +1.6280784528e+01 -4.8916222460e+01 5.4935105391e+01 0.0000000000e+00 0.0000e+00 -1.0000e+00
<mgrwt>
<rscale>  5 0.18266739E+03</rscale>
<asrwt>0</asrwt>
<pdfrwt beam="1">  1       21 0.10626804E+00 0.18266739E+03</pdfrwt>
<pdfrwt beam="2">  1       21 0.41678686E-01 0.18266739E+03</pdfrwt>
<totfact> 0.39670243E+03</totfact>
</mgrwt>
</event>
<event>
 7      1 +1.2627629e+02 5.06351600e+02 7.54677100e-03 1.13833100e-01
       21 -1    0    0  501  502 +0.0000000000e+00 +0.0000000000e+00 +1.1761987632e+03 1.1761987632e+03 0.0000000000e+00 0.0000e+00 -1.0000e+00
       21 -1    0    0  505  503 -0.0000000000e+00 -0.0000000000e+00 -3.6707664804e+02 3.6707664804e+02 0.0000000000e+00 0.0000e+00 1.0000e+00
        6  1    1    2  501    0 -2.7716632809e+02 -5.4096213346e+01 +4.2590501694e+02 5.3951057189e+02 1.7300000000e+02 0.0000e+00 -1.0000e+00
       -6  1    1    2    0  506 -1.1539182682e+02 -1.2886268918e+02 +3.5322029937e+02 4.2966783246e+02 1.7300000000e+02 0.0000e+00 -1.0000e+00
       21  1    1    2  504  502 +5.3648270552e+01 +9.4402323660e+01 +1.0297127967e+02 1.4964297539e+02 0.0000000000e+00 0.0000e+00 1.0000e+00
       21  1    1    2  505  504 +2.1805378249e+02 -1.5939354452e+01 -1.3052951454e+02 2.5463595435e+02 0.0000000000e+00 0.0000e+00 1.0000e+00
       21  1    1    2  506  503 +1.2085610186e+02 +1.0449593332e+02 +5.7555033755e+01 1.6981807721e+02 0.0000000000e+00 0.0000e+00 1.0000e+00
<mgrwt>
<rscale>  5 0.50635161E+03</rscale>
<asrwt>0</asrwt>
<pdfrwt beam="1">  1       21 0.18095365E+00 0.50635161E+03</pdfrwt>
<pdfrwt beam="2">  1       21 0.56473331E-01 0.50635161E+03</pdfrwt>
<totfact> 0.42514033E+02</totfact>
</mgrwt>
</event>
<event>
 7      1 +1.2627629e+02 2.24757500e+02 7.54677100e-03 1.06502400e-01
       21 -1    0    0  503  502 +0.0000000000e+00 +0.0000000000e+00 +5.3398642022e+02 5.3398642022e+02 0.0000000000e+00 0.0000e+00 1.0000e+00
       21 -1    0    0  501  503 -0.0000000000e+00 -0.0000000000e+00 -2.6412433471e+02 2.6412433471e+02 0.0000000000e+00 0.0000e+00 1.0000e+00
        6  1    1    2  501    0 -8.8013642966e+01 -9.1136051984e+01 -9.2040877133e+00 2.1462967304e+02 1.7300000000e+02 0.0000e+00 1.0000e+00
       -6  1    1    2    0  506 +7.4219766789e+01 +7.6893329692e+01 +3.2296708093e+02 3.8165153386e+02 1.7300000000e+02 0.0000e+00 1.0000e+00
       21  1    1    2  504  502 +3.2806347901e+01 +1.3868043582e+01 +2.2170975090e+01 4.1953917956e+01 0.0000000000e+00 0.0000e+00 -1.0000e+00
       21  1    1    2  505  504 -4.2290053747e+01 -2.6916532637e+01 -9.9137219021e+01 1.1109066824e+02 0.0000000000e+00 0.0000e+00 1.0000e+00
       21  1    1    2  506  505 +2.3277582023e+01 +2.7291211346e+01 +3.3065336213e+01 4.8784961827e+01 0.0000000000e+00 0.0000e+00 -1.0000e+00
<mgrwt>
<rscale>  5 0.22475754E+03</rscale>
<asrwt>0</asrwt>
<pdfrwt beam="1">  1       21 0.82151757E-01 0.22475754E+03</pdfrwt>
<pdfrwt beam="2">  1       21 0.40634513E-01 0.22475754E+03</pdfrwt>
<totfact> 0.73882889E+03</totfact>
</mgrwt>
</event>
<event>
 7      1 +1.2627629e+02 1.76514500e+02 7.54677100e-03 1.14101600e-01
       21 -1    0    0  501  502 +0.0000000000e+00 +0.0000000000e+00 +9.8580419889e+02 9.8580419889e+02 0.0000000000e+00 0.0000e+00 1.0000e+00
       21 -1    0    0  505  503 -0.0000000000e+00 -0.0000000000e+00 -3.0962630258e+02 3.0962630258e+02 0.0000000000e+00 0.0000e+00 -1.0000e+00
        6  1    1    2  501    0 -4.3422191901e+01 -1.1740726130e+02 +1.5419460444e+02 2.6339120675e+02 1.7300000000e+02 0.0000e+00 -1.0000e+00
       -6  1    1    2    0  506 -1.1517831650e+02 -3.4958052218e+01 +4.0022473416e+02 4.5232394126e+02 1.7300000000e+02 0.0000e+00 -1.0000e+00
       21  1    1    2  504  502 +1.3802126765e+02 +3.1366710198e+01 +3.0927089701e+02 3.4012090287e+02 0.0000000000e+00 0.0000e+00 1.0000e+00
       21  1    1    2  505  504 +1.0100882749e+01 +9.3361110363e+01 -1.8787337031e+02 2.1003506382e+02 0.0000000000e+00 0.0000e+00 -1.0000e+00
       21  1    1    2  506  503 +1.0478357997e+01 +2.7637492954e+01 +3.6103101391e-01 2.9559386775e+01 0.0000000000e+00 0.0000e+00 -1.0000e+00
<mgrwt>
<rscale>  5 0.17651447E+03</rscale>
<asrwt>0</asrwt>
<pdfrwt beam="1">  1       21 0.15166218E+00 0.17651447E+03</pdfrwt>
<pdfrwt beam="2">  1       21 0.47634816E-01 0.17651447E+03</pdfrwt>
<totfact> 0.12446430E+03</totfact>
</mgrwt>
</event>
<event>
 7      1 +1.2627629e+02 1.89938900e+02 7.54677100e-03 1.06502400e-01
       21 -1    0    0  501  502 +0.0000000000e+00 +0.0000000000e+00 +6.7980240130e+02 6.7980240130e+02 0.0000000000e+00 0.0000e+00 1.0000e+00
       21 -1    0    0  504  503 -0.0000000000e+00 -0.0000000000e+00 -6.6331368540e+02 6.6331368540e+02 0.0000000000e+00 0.0000e+00 1.0000e+00
        6  1    1    2  501    0 -5.3642617041e+01 -4.9302489490e+01 +4.4236652469e+02 4.8054698834e+02 1.7300000000e+02 0.0000e+00 1.0000e+00
       -6  1    1    2    0  505 -7.3397887058e+01 -6.1168350533e+01 -4.2045039849e+02 4.6458191369e+02 1.7300000000e+02 0.0000e+00 1.0000e+00
       21  1    1    2  504  502 +1.4416960177e+02 +1.6311668389e+01 +1.3409368361e+02 1.9756533245e+02 0.0000000000e+00 0.0000e+00 1.0000e+00
       21  1    1    2  505  506 -5.2017802529e+01 +5.6456759731e+01 -3.5857163917e+01 8.4728706490e+01 0.0000000000e+00 0.0000e+00 1.0000e+00
       21  1    1    2  506  503 +3.4888704855e+01 +3.7702411903e+01 -1.0366392999e+02 1.1569314574e+02 0.0000000000e+00 0.0000e+00 1.0000e+00
<mgrwt>
<rscale>  5 0.18993893E+03</rscale>
<asrwt>0</asrwt>
<pdfrwt beam="1">  1       21 0.10458499E+00 0.18993893E+03</pdfrwt>
<pdfrwt beam="2">  1       21 0.10204826E+00 0.18993893E+03</pdfrwt>
<totfact> 0.57872593E+02</totfact>
</mgrwt>
</event>
<event>
 7      1 +1.2627629e+02 3.14687300e+02 7.54677100e-03 1.17407200e-01
       21 -1    0    0  505  502 +0.0000000000e+00 +0.0000000000e+00 +2.3206393042e+03 2.3206393042e+03 0.0000000000e+00 0.0000e+00 -1.0000e+00
       21 -1    0    0  501  503 -0.0000000000e+00 -0.0000000000e+00 -3.6391415107e+02 3.6391415107e+02 0.0000000000e+00 0.0000e+00 -1.0000e+00
        6  1    1    2  501    0 +4.9735294418e+00 +4.3145955111e+02 +4.6663857743e+02 6.5868250484e+02 1.7300000000e+02 0.0000e+00 -1.0000e+00
       -6  1    1    2    0  506 +1.4770882457e+02 -1.7320898647e+02 +8.6270087639e+02 9.0884600014e+02 1.7300000000e+02 0.0000e+00 -1.0000e+00
       21  1    1    2  504  502 -1.2128953941e+01 -2.9162329964e+01 +7.4108732351e+02 7.4176005156e+02 0.0000000000e+00 0.0000e+00 1.0000e+00
       21  1    1    2  505  503 -2.0278238037e+01 -9.1126499182e+01 +6.9435377287e+01 1.1634654017e+02 0.0000000000e+00 0.0000e+00 -1.0000e+00
       21  1    1    2  506  504 -1.2027516204e+02 -1.3796173550e+02 -1.8313700151e+02 2.5891835854e+02 0.0000000000e+00 0.0000e+00 -1.0000e+00
<mgrwt>
<rscale>  5 0.31468727E+03</rscale>
<asrwt>0</asrwt>
<pdfrwt beam="1">  1       21 0.35702142E+00 0.31468727E+03</pdfrwt>
<pdfrwt beam="2">  1       21 0.55986794E-01 0.31468727E+03</pdfrwt>
<totfact> 0.40117054E+01</totfact>
</mgrwt>
</event>
<event>
 7      1 +1.2627629e+02 2.19286600e+02 7.54677100e-03 1.12385500e-01
       21 -1    0    0  506  502 +0.0000000000e+00 +0.0000000000e+00 +2.3700047102e+03 2.3700047102e+03 0.0000000000e+00 0.0000e+00 1.0000e+00
       21 -1    0    0  502  503 -0.0000000000e+00 -0.0000000000e+00 -1.2130489322e+02 1.2130489322e+02 0.0000000000e+00 0.0000e+00 -1.0000e+00
        6  1    1    2  501    0 -8.8024945471e+01 +1.7593853629e+02 +1.5194885207e+03 1.5419069765e+03 1.7300000000e+02 0.0000e+00 1.0000e+00
       -6  1    1    2    0  504 +7.0998706850e+00 -3.1586922095e+01 +4.0802993261e+02 4.4437097983e+02 1.7300000000e+02 0.0000e+00 -1.0000e+00
       21  1    1    2  504  503 +3.0036478163e+01 -1.3415349733e+02 +1.5445117486e+01 1.3833980816e+02 0.0000000000e+00 0.0000e+00 -1.0000e+00
       21  1    1    2  505  501 +7.0935498437e+01 -8.8096927712e+00 +1.2254929495e+01 7.2523368111e+01 0.0000000000e+00 0.0000e+00 1.0000e+00
       21  1    1    2  506  505 -2.0046901814e+01 -1.3884240935e+00 +2.9348131673e+02 2.9416847089e+02 0.0000000000e+00 0.0000e+00 1.0000e+00
<mgrwt>
<rscale>  5 0.21928664E+03</rscale>
<asrwt>0</asrwt>
<pdfrwt beam="1">  1       21 0.36461607E+00 0.21928664E+03</pdfrwt>
<pdfrwt beam="2">  1       21 0.18662293E-01 0.21928664E+03</pdfrwt>
<totfact> 0.36108322E+02</totfact>
</mgrwt>
</event>
<event>
 7      1 +1.2627629e+02 2.49717900e+02 7.54677100e-03 1.17191400e-01
       21 -1    0    0  504  502 +0.0000000000e+00 +0.0000000000e+00 +1.3186572117e+03 1.3186572117e+03 0.0000000000e+00 0.0000e+00 1.0000e+00
       21 -1    0    0  501  503 -0.0000000000e+00 -0.0000000000e+00 -1.9002144351e+02 1.9002144351e+02 0.0000000000e+00 0.0000e+00 1.0000e+00
        6  1    1    2  501    0 +1.1542419225e+02 +2.7937133787e+02 +3.7275507435e+02 5.1014354258e+02 1.7300000000e+02 0.0000e+00 1.0000e+00
       -6  1    1    2    0  505 -1.2039527649e+02 -7.4859732045e+01 +3.7423792984e+02 4.3598397931e+02 1.7300000000e+02 0.0000e+00 1.0000e+00
       21  1    1    2  504  506 +2.8484818985e+01 -1.0873859227e+01 +2.5810013687e+02 2.5989479868e+02 0.0000000000e+00 0.0000e+00 -1.0000e+00
       21  1    1    2  505  502 -3.7831619546e+01 -1.7849949783e+02 +1.7147325552e+02 2.5039245101e+02 0.0000000000e+00 0.0000e+00 1.0000e+00
       21  1    1    2  506  503 +1.4317884800e+01 -1.5138248776e+01 -4.7930628358e+01 5.2263883667e+01 0.0000000000e+00 0.0000e+00 -1.0000e+00
<mgrwt>
<rscale>  5 0.24971788E+03</rscale>
<asrwt>0</asrwt>
<pdfrwt beam="1">  1       21 0.20287033E+00 0.24971788E+03</pdfrwt>
<pdfrwt beam="2">  1       21 0.29234069E-01 0.24971788E+03</pdfrwt>
<totfact> 0.13645454E+03</totfact>
</mgrwt>
</event>
<event>
 7      1 +1.2627629e+02 3.40822600e+02 7.54677100e-03 1.17298600e-01
       21 -1    0    0  504  502 +0.0000000000e+00 +0.0000000000e+00 +5.4004160381e+02 5.4004160381e+02 0.0000000000e+00 0.0000e+00 -1.0000e+00
       21 -1    0    0  506  503 -0.0000000000e+00 -0.0000000000e+00 -4.7509337959e+02 4.7509337959e+02 0.0000000000e+00 0.0000e+00 1.0000e+00
        6  1    1    2  501    0 +3.7593680143e+02 -1.3526066277e+02 +2.7823939191e+00 4.3538565350e+02 1.7300000000e+02 0.0000e+00 1.0000e+00
       -6  1    1    2    0  502 -2.1730587344e+02 +3.4883574496e+01 +1.8856089604e+01 2.8057665355e+02 1.7300000000e+02 0.0000e+00 -1.0000e+00
       21  1    1    2  504  503 +1.2928824712e+01 +3.8648940138e+01 -5.2857716369e+01 6.6744537319e+01 0.0000000000e+00 0.0000e+00 -1.0000e+00
       21  1    1    2  505  501 -1.5672464511e+02 +7.8576994969e+01 +1.0912561980e+02 2.0650752872e+02 0.0000000000e+00 0.0000e+00 -1.0000e+00
       21  1    1    2  506  505 -1.4835107595e+01 -1.6848846836e+01 -1.2958162733e+01 2.5920610303e+01 0.0000000000e+00 0.0000e+00 -1.0000e+00
<mgrwt>
<rscale>  5 0.34082258E+03</rscale>
<asrwt>0</asrwt>
<pdfrwt beam="1">  1       21 0.83083323E-01 0.34082258E+03</pdfrwt>
<pdfrwt beam="2">  1       21 0.73091290E-01 0.34082258E+03</pdfrwt>
<totfact> 0.19214902E+03</totfact>
</mgrwt>
</event>
<event>
 7      1 +1.2627629e+02 2.03740600e+02 7.54677100e-03 1.11751800e-01
       21 -1    0    0  505  502 +0.0000000000e+00 +0.0000000000e+00 +1.8062739714e+03 1.8062739714e+03 0.0000000000e+00 0.0000e+00 1.0000e+00
       21 -1    0    0  506  503 -0.0000000000e+00 -0.0000000000e+00 -1.1108589126e+02 1.1108589126e+02 0.0000000000e+00 0.0000e+00 -1.0000e+00
        6  1    1    2  501    0 -1.5534576156e+02 +4.9060292074e+01 +2.1094607064e+02 3.1775220316e+02 1.7300000000e+02 0.0000e+00 -1.0000e+00
       -6  1    1    2    0  502 -9.9455525002e+00 -1.1628686107e+02 +1.2278853490e+03 1.2454930664e+03 1.7300000000e+02 0.0000e+00 1.0000e+00
       21  1    1    2  504  501 +1.1378361622e+02 +6.9436137990e+01 +1.9051143417e+02 2.3251386008e+02 0.0000000000e+00 0.0000e+00 1.0000e+00
       21  1    1    2  505  503 +2.2645274075e+01 +1.9064237031e+01 +7.8248550367e+01 8.3660559442e+01 0.0000000000e+00 0.0000e+00 -1.0000e+00
       21  1    1    2  506  504 +2.8862423769e+01 -2.1273806028e+01 -1.2403324023e+01 3.7940173636e+01 0.0000000000e+00 0.0000e+00 1.0000e+00
<mgrwt>
<rscale>  5 0.20374057E+03</rscale>
<asrwt>0</asrwt>
<pdfrwt beam="1">  1       21 0.27788828E+00 0.20374057E+03</pdfrwt>
<pdfrwt beam="2">  1       21 0.17090138E-01 0.20374057E+03</pdfrwt>
<totfact> 0.13948076E+03</totfact>
</mgrwt>
</event>
<event>
 7      1 +1.2627629e+02 1.89744800e+02 7.54677100e-03 1.12821900e-01
       21 -1    0    0  501  502 +0.0000000000e+00 +0.0000000000e+00 +7.9473147120e+01 7.9473147120e+01 0.0000000000e+00 0.0000e+00 1.0000e+00
       21 -1    0    0  505  503 -0.0000000000e+00 -0.0000000000e+00 -2.6784194236e+03 2.6784194236e+03 0.0000000000e+00 0.0000e+00 1.0000e+00
        6  1    1    2  501    0 +1.2267559063e+02 -1.0335187166e+02 -8.2407916487e+02 8.5718514913e+02 1.7300000000e+02 0.0000e+00 1.0000e+00
       -6  1    1    2    0  503 -2.5204644188e+01 -1.1711412527e+02 -1.3154281081e+03 1.3321528065e+03 1.7300000000e+02 0.0000e+00 1.0000e+00
       21  1    1    2  504  506 -5.2111058813e+01 +7.8638924857e+01 -3.0288584445e+02 3.1723725777e+02 0.0000000000e+00 0.0000e+00 1.0000e+00
       21  1    1    2  505  504 -3.8858488540e+01 +1.1262488061e+02 -3.2198088740e+01 1.2341419198e+02 0.0000000000e+00 0.0000e+00 1.0000e+00
       21  1    1    2  506  502 -6.5013990847e+00 +2.9202191463e+01 -1.2435507034e+02 1.2790316530e+02 0.0000000000e+00 0.0000e+00 1.0000e+00
<mgrwt>
<rscale>  5 0.18974484E+03</rscale>
<asrwt>0</asrwt>
<pdfrwt beam="1">  1       21 0.12226640E-01 0.18974484E+03</pdfrwt>
<pdfrwt beam="2">  1       21 0.41206445E+00 0.18974484E+03</pdfrwt>
<totfact> 0.41746768E+02</totfact>
</mgrwt>
</event>
<event>
 7      1 +1.2627629e+02 1.83191800e+02 7.54677100e-03 1.08953100e-01
       21 -1    0    0  505  502 +0.0000000000e+00 +0.0000000000e+00 +1.9533882277e+03 1.9533882277e+03 0.0000000000e+00 0.0000e+00 -1.0000e+00
       21 -1    0    0  501  503 -0.0000000000e+00 -0.0000000000e+00 -5.9951452335e+01 5.9951452335e+01 0.0000000000e+00 0.0000e+00 -1.0000e+00
        6  1    1    2  501    0 +5.8997190405e+01 +2.3219800208e+01 +5.4086411537e+02 5.7138675072e+02 1.7300000000e+02 0.0000e+00 -1.0000e+00
       -6  1    1    2    0  506 -6.0216956556e+00 +1.1296056741e+02 +8.6476749275e+02 8.8912775635e+02 1.7300000000e+02 0.0000e+00 -1.0000e+00
       21  1    1    2  504  502 -1.1643726784e+02 -8.3644744360e+01 +2.6624294357e+02 3.0238946014e+02 0.0000000000e+00 0.0000e+00 -1.0000e+00
       21  1    1    2  505  503 -8.8858946585e+00 -2.8898171956e+01 +2.3624259410e+01 3.8368855846e+01 0.0000000000e+00 0.0000e+00 -1.0000e+00
       21  1    1    2  506  504 +7.2347667751e+01 -2.3637451300e+01 +1.9793796431e+02 2.1206685703e+02 0.0000000000e+00 0.0000e+00 -1.0000e+00
<mgrwt>
<rscale>  5 0.18319180E+03</rscale>
<asrwt>0</asrwt>
<pdfrwt beam="1">  1       21 0.30052122E+00 0.18319180E+03</pdfrwt>
<pdfrwt beam="2">  1       21 0.92233019E-02 0.18319180E+03</pdfrwt>
<totfact> 0.32096791E+03</totfact>
</mgrwt>
</event>
<event>
 7      1 +1.2627629e+02 3.40360700e+02 7.54677100e-03 1.16725200e-01
       21 -1    0    0  505  502 +0.0000000000e+00 +0.0000000000e+00 +3.2565515077e+02 3.2565515077e+02 0.0000000000e+00 0.0000e+00 1.0000e+00
       21 -1    0    0  504  503 -0.0000000000e+00 -0.0000000000e+00 -2.1451337001e+03 2.1451337001e+03 0.0000000000e+00 0.0000e+00 -1.0000e+00
        6  1    1    2  501    0 -1.4532998498e+02 +2.4839555510e+02 -1.6875125000e+02 3.7580199667e+02 1.7300000000e+02 0.0000e+00 -1.0000e+00
       -6  1    1    2    0  502 +1.9160158947e+02 -2.6374898499e+02 -2.5941298115e-01 3.6905794053e+02 1.7300000000e+02 0.0000e+00 1.0000e+00
       21  1    1    2  504  501 +1.0787755038e+01 -2.6753673849e+01 -1.6513461521e+03 1.6515980894e+03 0.0000000000e+00 0.0000e+00 -1.0000e+00
       21  1    1    2  505  506 -3.4161138980e+01 +2.3489770351e+01 +1.1405027830e+01 4.2997992829e+01 0.0000000000e+00 0.0000e+00 1.0000e+00
       21  1    1    2  506  503 -2.2898220545e+01 +1.8617333393e+01 -1.0526762027e+01 3.1332831432e+01 0.0000000000e+00 0.0000e+00 -1.0000e+00
<mgrwt>
<rscale>  5 0.34036068E+03</rscale>
<asrwt>0</asrwt>
<pdfrwt beam="1">  1       21 0.50100795E-01 0.34036068E+03</pdfrwt>
<pdfrwt beam="2">  1       21 0.33002055E+00 0.34036068E+03</pdfrwt>
<totfact> 0.72004528E+01</totfact>
</mgrwt>
</event>
<event>
 7      1 +1.2627629e+02 2.82542800e+02 7.54677100e-03 1.10412600e-01
       21 -1    0    0  504  502 +0.0000000000e+00 +0.0000000000e+00 +1.7755249585e+03 1.7755249585e+03 0.0000000000e+00 0.0000e+00 1.0000e+00
       21 -1    0    0  506  503 -0.0000000000e+00 -0.0000000000e+00 -2.9675217134e+02 2.9675217134e+02 0.0000000000e+00 0.0000e+00 -1.0000e+00
        6  1    1    2  501    0 -2.1919034734e+02 +1.2798544200e+02 +1.0843259282e+03 1.1269944101e+03 1.7300000000e+02 0.0000e+00 1.0000e+00
       -6  1    1    2    0  502 +1.2201301697e+02 -1.6740973030e+02 +5.0207653939e+02 5.7002021500e+02 1.7300000000e+02 0.0000e+00 -1.0000e+00
       21  1    1    2  504  505 +9.1983431686e+00 -3.7133960070e+01 +9.9672993418e+01 1.0676256893e+02 0.0000000000e+00 0.0000e+00 1.0000e+00
       21  1    1    2  505  503 +1.9642352310e+01 +3.3442605076e+01 +7.0533631144e+00 3.9420550095e+01 0.0000000000e+00 0.0000e+00 -1.0000e+00
       21  1    1    2  506  501 +6.8336634888e+01 +4.3115643297e+01 -2.1435603700e+02 2.2907938572e+02 0.0000000000e+00 0.0000e+00 -1.0000e+00
<mgrwt>
<rscale>  5 0.28254278E+03</rscale>
<asrwt>0</asrwt>
<pdfrwt beam="1">  1       21 0.27315768E+00 0.28254278E+03</pdfrwt>
<pdfrwt beam="2">  1       21 0.45654181E-01 0.28254278E+03</pdfrwt>
<totfact> 0.20087514E+02</totfact>
</mgrwt>
</event>
<event>
 7      1 +1.2627629e+02 2.06827300e+02 7.54677100e-03 1.16725200e-01
       21 -1    0    0  506  502 +0.0000000000e+00 +0.0000000000e+00 +4.3128136507e+02 4.3128136507e+02 0.0000000000e+00 0.0000e+00 1.0000e+00
       21 -1    0    0  504  503 -0.0000000000e+00 -0.0000000000e+00 -6.6976861452e+02 6.6976861452e+02 0.0000000000e+00 0.0000e+00 1.0000e+00
        6  1    1    2  501    0 -4.3050335441e+00 -7.9292012397e+01 -2.3581351660e+02 3.0305572286e+02 1.7300000000e+02 0.0000e+00 1.0000e+00
       -6  1    1    2    0  502 -1.5079892418e+02 +9.4877544752e+01 +5.7347258601e+01 2.5487207007e+02 1.7300000000e+02 0.0000e+00 1.0000e+00
       21  1    1    2  504  501 +4.8396896388e+01 -3.4048538526e+01 -2.8479926281e+02 2.9088173310e+02 0.0000000000e+00 0.0000e+00 1.0000e+00
       21  1    1    2  505  503 +3.2227831232e+01 -3.1661305416e+00 +3.7551747676e+01 4.9586200117e+01 0.0000000000e+00 0.0000e+00 1.0000e+00
       21  1    1    2  506  505 +7.4479230105e+01 +2.1629136713e+01 +1.8722652368e+02 2.0265425345e+02 0.0000000000e+00 0.0000e+00 1.0000e+00
<mgrwt>
<rscale>  5 0.20682730E+03</rscale>
<asrwt>0</asrwt>
<pdfrwt beam="1">  1       21 0.66350979E-01 0.20682730E+03</pdfrwt>
<pdfrwt beam="2">  1       21 0.10304133E+00 0.20682730E+03</pdfrwt>
<totfact> 0.15719168E+03</totfact>
</mgrwt>
</event>
<event>
 7      1 +1.2627629e+02 2.73486500e+02 7.54677100e-03 1.17191400e-01
       21 -1    0    0  504  502 +0.0000000000e+00 +0.0000000000e+00 +8.0950262273e+02 8.0950262273e+02 0.0000000000e+00 0.0000e+00 1.0000e+00
       21 -1    0    0  501  503 -0.0000000000e+00 -0.0000000000e+00 -6.5328793096e+02 6.5328793096e+02 0.0000000000e+00 0.0000e+00 1.0000e+00
        6  1    1    2  501    0 +2.6930778490e+02 +2.4658960593e+00 +8.2002658086e+01 3.3043335120e+02 1.7300000000e+02 0.0000e+00 1.0000e+00
       -6  1    1    2    0  505 -1.1954535147e+02 +1.6779782864e+02 -2.8617721364e+01 2.7054607063e+02 1.7300000000e+02 0.0000e+00 1.0000e+00
       21  1    1    2  504  506 +9.4578536107e-01 -2.0642173564e+01 +2.5646098828e+02 2.5729211482e+02 0.0000000000e+00 0.0000e+00 1.0000e+00
       21  1    1    2  505  502 -3.8879095995e+01 -5.9827276477e-01 +2.0056971680e+02 2.0430407077e+02 0.0000000000e+00 0.0000e+00 -1.0000e+00
       21  1    1    2  506  503 -1.1182912280e+02 -1.4902327837e+02 -3.5420095004e+02 4.0021494626e+02 0.0000000000e+00 0.0000e+00 1.0000e+00
<mgrwt>
<rscale>  5 0.27348648E+03</rscale>
<asrwt>0</asrwt>
<pdfrwt beam="1">  1       21 0.12453886E+00 0.27348648E+03</pdfrwt>
<pdfrwt beam="2">  1       21 0.10050584E+00 0.27348648E+03</pdfrwt>
<totfact> 0.36064982E+02</totfact>
</mgrwt>
</event>
<event>
 7      1 +1.2627629e+02 4.66055100e+02 7.54677100e-03 1.06502400e-01
       21 -1    0    0  503  502 +0.0000000000e+00 +0.0000000000e+00 +1.7389753029e+02 1.7389753029e+02 0.0000000000e+00 0.0000e+00 -1.0000e+00
       21 -1    0    0  501  503 -0.0000000000e+00 -0.0000000000e+00 -2.6697144352e+03 2.6697144352e+03 0.0000000000e+00 0.0000e+00 1.0000e+00
        6  1    1    2  501    0 -2.9757039333e+02 +2.9411540703e+02 -1.8074283005e+03 1.8632707997e+03 1.7300000000e+02 0.0000e+00 1.0000e+00
       -6  1    1    2    0  505 +3.6838199253e+02 -2.1385858080e+02 -4.0179270385e+02 6.1057936574e+02 1.7300000000e+02 0.0000e+00 -1.0000e+00
       21  1    1    2  504  502 +2.1269971089e+00 -2.1053151822e+01 +2.2048847421e+01 3.0559957312e+01 0.0000000000e+00 0.0000e+00 -1.0000e+00
       21  1    1    2  505  506 -6.0505542132e+01 -3.0048165507e+01 -2.9830984257e+02 3.0586365435e+02 0.0000000000e+00 0.0000e+00 1.0000e+00
       21  1    1    2  506  504 -1.2433054173e+01 -2.9155508899e+01 -1.0334905445e+01 3.3338188400e+01 0.0000000000e+00 0.0000e+00 -1.0000e+00
<mgrwt>
<rscale>  5 0.46605508E+03</rscale>
<asrwt>0</asrwt>
<pdfrwt beam="1">  1       21 0.26753466E-01 0.46605508E+03</pdfrwt>
<pdfrwt beam="2">  1       21 0.41072531E+00 0.46605508E+03</pdfrwt>
<totfact> 0.73390829E+01</totfact>
</mgrwt>
</event>
<event>
 7      1 +1.2627629e+02 1.95952900e+02 7.54677100e-03 1.10412600e-01
       21 -1    0    0  503  502 +0.0000000000e+00 +0.0000000000e+00 +1.0672882603e+03 1.0672882603e+03 0.0000000000e+00 0.0000e+00 1.0000e+00
       21 -1    0    0  506  503 -0.0000000000e+00 -0.0000000000e+00 -3.4470993557e+02 3.4470993557e+02 0.0000000000e+00 0.0000e+00 -1.0000e+00
        6  1    1    2  501    0 -9.6291478291e+00 -2.9631763903e+00 +5.5122231913e+02 5.7782051366e+02 1.7300000000e+02 0.0000e+00 -1.0000e+00
       -6  1    1    2    0  502 +2.8078180771e+01 -1.5335192020e+02 -5.0375880986e+01 2.3826859854e+02 1.7300000000e+02 0.0000e+00 1.0000e+00
       21  1    1    2  504  501 -4.0839850009e+01 +8.8195806956e+01 +3.9538314696e+02 4.0715381199e+02 0.0000000000e+00 0.0000e+00 1.0000e+00
       21  1    1    2  505  504 +8.7581535458e+00 +4.8189569032e+01 -1.2914386655e+02 1.3811979614e+02 0.0000000000e+00 0.0000e+00 -1.0000e+00
       21  1    1    2  506  505 +1.3632663521e+01 +1.9929720599e+01 -4.4507393830e+01 5.0635475542e+01 0.0000000000e+00 0.0000e+00 1.0000e+00
<mgrwt>
<rscale>  5 0.19595286E+03</rscale>
<asrwt>0</asrwt>
<pdfrwt beam="1">  1       21 0.16419819E+00 0.19595286E+03</pdfrwt>
<pdfrwt beam="2">  1       21 0.53032298E-01 0.19595286E+03</pdfrwt>
<totfact> 0.78752327E+02</totfact>
</mgrwt>
</event>
<event>
 7      1 +1.2627629e+02 1.91931200e+02 7.54677100e-03 1.17298600e-01
       21 -1    0    0  505  502 +0.0000000000e+00 +0.0000000000e+00 +8.4253267667e+02 8.4253267667e+02 0.0000000000e+00 0.0000e+00 -1.0000e+00
       21 -1    0    0  501  503 -0.0000000000e+00 -0.0000000000e+00 -1.0879348988e+03 1.0879348988e+03 0.0000000000e+00 0.0000e+00 -1.0000e+00
        6  1    1    2  501    0 -3.8561808487e+01 +4.4576061682e+01 -3.7283806275e+01 1.8652914131e+02 1.7300000000e+02 0.0000e+00 1.0000e+00
       -6  1    1    2    0  502 -6.2951148974e+01 +2.8647225471e+01 +5.9132781916e+02 6.1998475819e+02 1.7300000000e+02 0.0000e+00 -1.0000e+00
       21  1    1    2  504  506 +6.3736705992e+01 -9.4441691668e+00 -3.3904812540e+02 3.4511619979e+02 0.0000000000e+00 0.0000e+00 -1.0000e+00
       21  1    1    2  505  504 -1.1528870217e+01 +7.1395898757e+01 +1.4207393738e+02 1.5942174535e+02 0.0000000000e+00 0.0000e+00 1.0000e+00
       21  1    1    2  506  503 +4.9305121685e+01 -1.3517501674e+02 -6.0247204700e+02 6.1941573082e+02 0.0000000000e+00 0.0000e+00 -1.0000e+00
<mgrwt>
<rscale>  5 0.19193115E+03</rscale>
<asrwt>0</asrwt>
<pdfrwt beam="1">  1       21 0.12962041E+00 0.19193115E+03</pdfrwt>
<pdfrwt beam="2">  1       21 0.16737460E+00 0.19193115E+03</pdfrwt>
<totfact> 0.97075169E+01</totfact>
</mgrwt>
</event>
<event>
 7      1 +1.2627629e+02 2.14027800e+02 7.54677100e-03 1.11751800e-01
       21 -1    0    0  505  502 +0.0000000000e+00 +0.0000000000e+00 +5.2814179059e+02 5.2814179059e+02 0.0000000000e+00 0.0000e+00 -1.0000e+00
       21 -1    0    0  501  503 -0.0000000000e+00 -0.0000000000e+00 -1.8435742772e+03 1.8435742772e+03 0.0000000000e+00 0.0000e+00 1.0000e+00
        6  1    1    2  501    0 -7.5780375739e+01 +1.7630747354e+01 -3.1216913207e+02 3.6528355509e+02 1.7300000000e+02 0.0000e+00 -1.0000e+00
       -6  1    1    2    0  502 +1.2293151474e+02 +4.2968689097e+01 +4.6765364008e+02 5.1535171741e+02 1.7300000000e+02 0.0000e+00 -1.0000e+00
       21  1    1    2  504  506 -2.9427673748e+01 -3.8247183936e+00 -2.7505748884e+01 4.0462114066e+01 0.0000000000e+00 0.0000e+00 -1.0000e+00
       21  1    1    2  505  504 -2.8978495642e+01 -1.0044446368e+01 -7.0695470545e+01 7.7061622538e+01 0.0000000000e+00 0.0000e+00 -1.0000e+00
       21  1    1    2  506  503 +1.1255030393e+01 -4.6730271690e+01 -1.3727157752e+03 1.3735570587e+03 0.0000000000e+00 0.0000e+00 1.0000e+00
<mgrwt>
<rscale>  5 0.21402778E+03</rscale>
<asrwt>0</asrwt>
<pdfrwt beam="1">  1       21 0.81252584E-01 0.21402778E+03</pdfrwt>
<pdfrwt beam="2">  1       21 0.28362681E+00 0.21402778E+03</pdfrwt>
<totfact> 0.54407954E+01</totfact>
</mgrwt>
</event>
<event>
 7      1 +1.2627629e+02 1.88420200e+02 7.54677100e-03 1.06502400e-01
       21 -1    0    0  504  502 +0.0000000000e+00 +0.0000000000e+00 +7.2530536468e+02 7.2530536468e+02 0.0000000000e+00 0.0000e+00 -1.0000e+00
       21 -1    0    0  502  503 -0.0000000000e+00 -0.0000000000e+00 -9.1244059174e+02 9.1244059174e+02 0.0000000000e+00 0.0000e+00 -1.0000e+00
        6  1    1    2  501    0 -4.4740298063e+00 +6.7254425074e+01 +1.7361588800e+02 2.5419412110e+02 1.7300000000e+02 0.0000e+00 -1.0000e+00
       -6  1    1    2    0  506 -2.3386090594e+00 -9.4228037551e+01 +1.1200441604e+02 2.2662387642e+02 1.7300000000e+02 0.0000e+00 -1.0000e+00
       21  1    1    2  504  501 -3.6954132099e+00 -3.2518853848e+01 +3.3003888799e+02 3.3165765410e+02 0.0000000000e+00 0.0000e+00 -1.0000e+00
       21  1    1    2  505  503 -1.1524838342e+01 +5.3101565286e+01 -8.0035778652e+02 8.0220021477e+02 0.0000000000e+00 0.0000e+00 -1.0000e+00
       21  1    1    2  506  505 +2.2032890417e+01 +6.3909010388e+00 -2.4366325720e+00 2.3070090041e+01 0.0000000000e+00 0.0000e+00 1.0000e+00
<mgrwt>
<rscale>  5 0.18842022E+03</rscale>
<asrwt>0</asrwt>
<pdfrwt beam="1">  1       21 0.11158544E+00 0.18842022E+03</pdfrwt>
<pdfrwt beam="2">  1       21 0.14037547E+00 0.18842022E+03</pdfrwt>
<totfact> 0.22539686E+02</totfact>
</mgrwt>
</event>
<event>
 7      1 +1.2627629e+02 1.98107900e+02 7.54677100e-03 1.17191400e-01
       21 -1    0    0  504  502 +0.0000000000e+00 +0.0000000000e+00 +2.0183820870e+02 2.0183820870e+02 0.0000000000e+00 0.0000e+00 1.0000e+00
       21 -1    0    0  501  503 -0.0000000000e+00 -0.0000000000e+00 -9.6744434735e+02 9.6744434735e+02 0.0000000000e+00 0.0000e+00 1.0000e+00
        6  1    1    2  501    0 +1.3071978650e+01 +4.5573839407e+01 -2.5032201704e+02 3.0795773034e+02 1.7300000000e+02 0.0000e+00 1.0000e+00
       -6  1    1    2    0  505 -6.0757599042e+00 -1.4717784658e+02 -4.2035112972e+02 4.7783083371e+02 1.7300000000e+02 0.0000e+00 1.0000e+00
       21  1    1    2  504  506 +1.4237948738e+01 -1.5741884553e+01 +4.6564377229e+01 5.1173893151e+01 0.0000000000e+00 0.0000e+00 -1.0000e+00
       21  1    1    2  505  502 -6.9447534891e+01 +1.0682669125e+02 +4.8261221619e+01 1.3624994524e+02 0.0000000000e+00 0.0000e+00 1.0000e+00
       21  1    1    2  506  503 +4.8213367407e+01 +1.0519200480e+01 -1.8975859073e+02 1.9607015360e+02 0.0000000000e+00 0.0000e+00 -1.0000e+00
<mgrwt>
<rscale>  5 0.19810792E+03</rscale>
<asrwt>0</asrwt>
<pdfrwt beam="1">  1       21 0.31052032E-01 0.19810792E+03</pdfrwt>
<pdfrwt beam="2">  1       21 0.14883759E+00 0.19810792E+03</pdfrwt>
<totfact> 0.30244392E+03</totfact>
</mgrwt>
</event>
<event>
 7      1 +1.2627629e+02 2.00019300e+02 7.54677100e-03 1.08953100e-01
       21 -1    0    0  504  502 +0.0000000000e+00 +0.0000000000e+00 +8.6373736442e+02 8.6373736442e+02 0.0000000000e+00 0.0000e+00 -1.0000e+00
       21 -1    0    0  501  503 -0.0000000000e+00 -0.0000000000e+00 -1.8619331211e+02 1.8619331211e+02 0.0000000000e+00 0.0000e+00 1.0000e+00
        6  1    1    2  501    0 +4.5194599507e+01 +6.5092567268e+01 +1.5292636197e+02 2.4412100754e+02 1.7300000000e+02 0.0000e+00 1.0000e+00
       -6  1    1    2    0  502 +1.2226632912e+02 -8.2424222121e+01 +5.2164832907e+02 5.6902441675e+02 1.7300000000e+02 0.0000e+00 -1.0000e+00
       21  1    1    2  504  506 -8.2381210300e+01 +4.7443354625e+01 +4.2889452815e+01 1.0429305284e+02 0.0000000000e+00 0.0000e+00 1.0000e+00
       21  1    1    2  505  503 -8.2620286961e-01 -2.2071363569e+01 -4.2412838240e+01 4.7819206900e+01 0.0000000000e+00 0.0000e+00 1.0000e+00
       21  1    1    2  506  505 -8.4253515457e+01 -8.0403362018e+00 +2.4927466993e+00 8.4672992502e+01 0.0000000000e+00 0.0000e+00 1.0000e+00
<mgrwt>
<rscale>  5 0.20001933E+03</rscale>
<asrwt>0</asrwt>
<pdfrwt beam="1">  1       21 0.13288267E+00 0.20001933E+03</pdfrwt>
<pdfrwt beam="2">  1       21 0.28645125E-01 0.20001933E+03</pdfrwt>
<totfact> 0.47382567E+03</totfact>
</mgrwt>
</event>
<event>
 7      1 +1.2627629e+02 1.88069000e+02 7.54677100e-03 1.17191400e-01
       21 -1    0    0  504  502 +0.0000000000e+00 +0.0000000000e+00 +2.1400972324e+02 2.1400972324e+02 0.0000000000e+00 0.0000e+00 1.0000e+00
       21 -1    0    0  501  503 -0.0000000000e+00 -0.0000000000e+00 -6.9039470559e+02 6.9039470559e+02 0.0000000000e+00 0.0000e+00 1.0000e+00
        6  1    1    2  501    0 -4.0756842194e+01 -4.1249238511e+01 -3.0428452387e+02 3.5479669014e+02 1.7300000000e+02 0.0000e+00 1.0000e+00
       -6  1    1    2    0  505 +6.1066883832e+01 +6.6907666246e+01 -2.4579904820e+02 3.1392988421e+02 1.7300000000e+02 0.0000e+00 1.0000e+00
       21  1    1    2  504  506 -1.4691367688e+01 -1.7526505352e+01 +1.4273222634e+02 1.4455276930e+02 0.0000000000e+00 0.0000e+00 1.0000e+00
       21  1    1    2  505  502 +1.9139511227e+01 -1.2861838257e+01 -6.8944587777e+00 2.4068264067e+01 0.0000000000e+00 0.0000e+00 -1.0000e+00
       21  1    1    2  506  503 -2.4758185176e+01 +4.7299158737e+00 -6.2139177840e+01 6.7056821130e+01 0.0000000000e+00 0.0000e+00 1.0000e+00
<mgrwt>
<rscale>  5 0.18806904E+03</rscale>
<asrwt>0</asrwt>
<pdfrwt beam="1">  1       21 0.32924573E-01 0.18806904E+03</pdfrwt>
<pdfrwt beam="2">  1       21 0.10621457E+00 0.18806904E+03</pdfrwt>
<totfact> 0.63336932E+03</totfact>
</mgrwt>
</event>
<event>
 7      1 +1.2627629e+02 2.59018400e+02 7.54677100e-03 1.16537000e-01
       21 -1    0    0  504  502 +0.0000000000e+00 +0.0000000000e+00 +2.4208999840e+02 2.4208999840e+02 0.0000000000e+00 0.0000e+00 -1.0000e+00
       21 -1    0    0  505  503 -0.0000000000e+00 -0.0000000000e+00 -7.8084380488e+02 7.8084380488e+02 0.0000000000e+00 0.0000e+00 -1.0000e+00
        6  1    1    2  501    0 -1.8297454446e+02 -6.5448932545e+01 +5.5180174534e+00 2.6023584536e+02 1.7300000000e+02 0.0000e+00 -1.0000e+00
       -6  1    1    2    0  502 +1.6056405207e+02 +3.3594393582e+01 -2.6464536789e+02 3.5619596972e+02 1.7300000000e+02 0.0000e+00 -1.0000e+00
       21  1    1    2  504  503 -2.3621416962e+01 +2.2260249612e+00 +4.0432922124e+01 4.6880142042e+01 0.0000000000e+00 0.0000e+00 1.0000e+00
       21  1    1    2  505  506 -1.5599266617e+01 -1.2634462509e+01 -2.6751779107e+02 2.6826989265e+02 0.0000000000e+00 0.0000e+00 1.0000e+00
       21  1    1    2  506  501 +6.1631175970e+01 +4.2262976510e+01 -5.2541587100e+01 9.1351953509e+01 0.0000000000e+00 0.0000e+00 -1.0000e+00
<mgrwt>
<rscale>  5 0.25901845E+03</rscale>
<asrwt>0</asrwt>
<pdfrwt beam="1">  1       21 0.37244616E-01 0.25901845E+03</pdfrwt>
<pdfrwt beam="2">  1       21 0.12012981E+00 0.25901845E+03</pdfrwt>
<totfact> 0.34837502E+03</totfact>
</mgrwt>
</event>
<event>
 7      1 +1.2627629e+02 2.18680600e+02 7.54677100e-03 1.13461400e-01
       21 -1    0    0  504  502 +0.0000000000e+00 +0.0000000000e+00 +4.9500718031e+02 4.9500718031e+02 0.0000000000e+00 0.0000e+00 1.0000e+00
       21 -1    0    0  501  503 -0.0000000000e+00 -0.0000000000e+00 -6.0963271775e+02 6.0963271775e+02 0.0000000000e+00 0.0000e+00 -1.0000e+00
        6  1    1    2  501    0 +2.5054535502e+01 -1.2047013314e+02 -4.0550831745e+02 4.5771910409e+02 1.7300000000e+02 0.0000e+00 -1.0000e+00
       -6  1    1    2    0  505 +3.1582606671e+01 +1.8263400826e+02 -5.3835096656e+01 2.5919077848e+02 1.7300000000e+02 0.0000e+00 -1.0000e+00
       21  1    1    2  504  506 -4.3777460793e+01 +1.4196579685e+00 +6.8810301115e+01 8.1568002560e+01 0.0000000000e+00 0.0000e+00 -1.0000e+00
       21  1    1    2  505  502 -8.3647617845e+00 -3.0415979528e+01 +2.7040881350e+02 2.7224258937e+02 0.0000000000e+00 0.0000e+00 1.0000e+00
       21  1    1    2  506  503 -4.4949195962e+00 -3.3167553558e+01 +5.4987620558e+00 3.3919423570e+01 0.0000000000e+00 0.0000e+00 1.0000e+00
<mgrwt>
<rscale>  5 0.21868060E+03</rscale>
<asrwt>0</asrwt>
<pdfrwt beam="1">  1       21 0.76154951E-01 0.21868060E+03</pdfrwt>
<pdfrwt beam="2">  1       21 0.93789649E-01 0.21868060E+03</pdfrwt>
<totfact> 0.14320527E+03</totfact>
</mgrwt>
</event>
<event>
 7      1 +1.2627629e+02 1.73025900e+02 7.54677100e-03 1.07499700e-01
       21 -1    0    0  505  502 +0.0000000000e+00 +0.0000000000e+00 +2.1746579604e+03 2.1746579604e+03 0.0000000000e+00 0.0000e+00 -1.0000e+00
       21 -1    0    0  501  503 -0.0000000000e+00 -0.0000000000e+00 -8.2792015443e+01 8.2792015443e+01 0.0000000000e+00 0.0000e+00 -1.0000e+00
        6  1    1    2  501    0 +1.4038656081e+01 +1.3493726780e+01 +3.8412696592e+02 4.2173651783e+02 1.7300000000e+02 0.0000e+00 1.0000e+00
       -6  1    1    2    0  506 +7.8930982188e+00 +1.8001176968e+01 +3.5824235805e+02 3.9831260396e+02 1.7300000000e+02 0.0000e+00 -1.0000e+00
       21  1    1    2  504  503 +7.3452605529e+01 -4.5701043158e+00 +5.5404364094e+00 7.3802896610e+01 0.0000000000e+00 0.0000e+00 -1.0000e+00
       21  1    1    2  505  504 -6.5287895798e+01 -3.9546145463e+01 +1.4213997456e+02 1.6133870994e+02 0.0000000000e+00 0.0000e+00 1.0000e+00
       21  1    1    2  506  502 -3.0096464030e+01 +1.2621346031e+01 +1.2018162101e+03 1.2022592475e+03 0.0000000000e+00 0.0000e+00 -1.0000e+00
<mgrwt>
<rscale>  5 0.17302591E+03</rscale>
<asrwt>0</asrwt>
<pdfrwt beam="1">  1       21 0.33456272E+00 0.17302591E+03</pdfrwt>
<pdfrwt beam="2">  1       21 0.12737235E-01 0.17302591E+03</pdfrwt>
<totfact> 0.11696858E+03</totfact>
</mgrwt>
</event>
<event>
 7      1 +1.2627629e+02 3.53947400e+02 7.54677100e-03 1.16725200e-01
       21 -1    0    0  506  502 +0.0000000000e+00 +0.0000000000e+00 +1.2226262369e+03 1.2226262369e+03 0.0000000000e+00 0.0000e+00 -1.0000e+00
       21 -1    0    0  504  503 -0.0000000000e+00 -0.0000000000e+00 -1.3216384067e+03 1.3216384067e+03 0.0000000000e+00 0.0000e+00 -1.0000e+00
        6  1    1    2  501    0 +2.8459848124e+02 +5.0133696927e+01 -4.0762870306e+02 5.2877201387e+02 1.7300000000e+02 0.0000e+00 -1.0000e+00
       -6  1    1    2    0  502 -2.9517320177e+02 -1.0920205936e+02 +9.5572994114e+01 3.7163894577e+02 1.7300000000e+02 0.0000e+00 1.0000e+00
       21  1    1    2  504  501 +3.4639992442e+01 -3.7047922707e+01 -7.1060403311e+02 7.1241179772e+02 0.0000000000e+00 0.0000e+00 -1.0000e+00
       21  1    1    2  505  503 -2.5874182484e+01 +3.6430932035e+00 +1.4674727233e+02 1.4905538361e+02 0.0000000000e+00 0.0000e+00 1.0000e+00
       21  1    1    2  506  505 +1.8089105742e+00 +9.2473191939e+01 +7.7690029998e+02 7.8238650263e+02 0.0000000000e+00 0.0000e+00 -1.0000e+00
<mgrwt>
<rscale>  5 0.35394740E+03</rscale>
<asrwt>0</asrwt>
<pdfrwt beam="1">  1       21 0.18809634E+00 0.35394740E+03</pdfrwt>
<pdfrwt beam="2">  1       21 0.20332899E+00 0.35394740E+03</pdfrwt>
<totfact> 0.16725392E+01</totfact>
</mgrwt>
</event>
<event>
 7      1 +1.2627629e+02 1.74299900e+02 7.54677100e-03 1.17159500e-01
       21 -1    0    0  505  502 +0.0000000000e+00 +0.0000000000e+00 +3.2929057214e+02 3.2929057214e+02 0.0000000000e+00 0.0000e+00 -1.0000e+00
       21 -1    0    0  501  503 -0.0000000000e+00 -0.0000000000e+00 -3.0876492004e+02 3.0876492004e+02 0.0000000000e+00 0.0000e+00 -1.0000e+00
        6  1    1    2  501    0 +5.1885626179e+01 +2.5227907212e+01 +1.7920181797e+01 1.8324491377e+02 1.7300000000e+02 0.0000e+00 1.0000e+00
       -6  1    1    2    0  502 +8.7105542210e+00 -7.4161772461e+00 -9.6797889120e+01 1.9856914357e+02 1.7300000000e+02 0.0000e+00 1.0000e+00
       21  1    1    2  504  506 +7.9517590035e+00 -3.1624358361e+01 +8.2498853028e+01 8.8709589470e+01 0.0000000000e+00 0.0000e+00 -1.0000e+00
       21  1    1    2  505  504 -4.6573204357e+01 +3.4157772464e+00 +8.4033156484e+01 9.6136893475e+01 0.0000000000e+00 0.0000e+00 -1.0000e+00
       21  1    1    2  506  503 -2.1974735047e+01 +1.0396851149e+01 -6.7128650089e+01 7.1394951901e+01 0.0000000000e+00 0.0000e+00 -1.0000e+00
<mgrwt>
<rscale>  5 0.17429989E+03</rscale>
<asrwt>0</asrwt>
<pdfrwt beam="1">  1       21 0.50660088E-01 0.17429989E+03</pdfrwt>
<pdfrwt beam="2">  1       21 0.47502295E-01 0.17429989E+03</pdfrwt>
<totfact> 0.15898716E+04</totfact>
</mgrwt>
</event>
<event>
 7      1 +1.2627629e+02 2.14224600e+02 7.54677100e-03 1.12385500e-01
       21 -1    0    0  506  502 +0.0000000000e+00 +0.0000000000e+00 +1.5221863747e+03 1.5221863747e+03 0.0000000000e+00 0.0000e+00 1.0000e+00
       21 -1    0    0  502  503 -0.0000000000e+00 -0.0000000000e+00 -2.4621501566e+02 2.4621501566e+02 0.0000000000e+00 0.0000e+00 1.0000e+00
        6  1    1    2  501    0 +2.8243483602e+01 +1.4869130791e+02 -3.2028886320e+01 2.3208112584e+02 1.7300000000e+02 0.0000e+00 1.0000e+00
       -6  1    1    2    0  504 -1.0025532031e+02 -1.0732520103e+02 +1.2773801488e+03 1.2973815447e+03 1.7300000000e+02 0.0000e+00 1.0000e+00
       21  1    1    2  504  503 +9.3053472817e+00 -1.9637733071e+01 -7.2511794608e+01 7.5698021146e+01 0.0000000000e+00 0.0000e+00 1.0000e+00
       21  1    1    2  505  501 +4.6728540392e+01 -3.8397348027e+01 +3.0800562863e+00 6.0559058525e+01 0.0000000000e+00 0.0000e+00 1.0000e+00
       21  1    1    2  506  505 +1.5977949030e+01 +1.6668974220e+01 +1.0005183484e+02 1.0268164009e+02 0.0000000000e+00 0.0000e+00 -1.0000e+00
<mgrwt>
<rscale>  5 0.21422460E+03</rscale>
<asrwt>0</asrwt>
<pdfrwt beam="1">  1       21 0.23418251E+00 0.21422460E+03</pdfrwt>
<pdfrwt beam="2">  1       21 0.37879234E-01 0.21422460E+03</pdfrwt>
<totfact> 0.54026415E+02</totfact>
</mgrwt>
</event>
<event>
 7      1 +1.2627629e+02 1.83046900e+02 7.54677100e-03 1.06502400e-01
       21 -1    0    0  504  502 +0.0000000000e+00 +0.0000000000e+00 +9.0148410339e+02 9.0148410339e+02 0.0000000000e+00 0.0000e+00 -1.0000e+00
       21 -1    0    0  502  503 -0.0000000000e+00 -0.0000000000e+00 -2.4964240954e+02 2.4964240954e+02 0.0000000000e+00 0.0000e+00 -1.0000e+00
        6  1    1    2  501    0 +5.0063447744e+01 -3.5107600737e+00 +4.4640472261e+01 1.8558137299e+02 1.7300000000e+02 0.0000e+00 -1.0000e+00
       -6  1    1    2    0  506 -7.1289821257e+01 -9.1216045964e+00 +4.0524127617e+02 4.4644701163e+02 1.7300000000e+02 0.0000e+00 -1.0000e+00
       21  1    1    2  504  501 +1.5860110987e+01 -1.5034114337e+01 +3.3304752409e+02 3.3376372035e+02 0.0000000000e+00 0.0000e+00 -1.0000e+00
       21  1    1    2  505  503 -1.5827923157e+01 +1.3037132328e+01 -1.5124619978e+02 1.5262995420e+02 0.0000000000e+00 0.0000e+00 -1.0000e+00
       21  1    1    2  506  505 +2.1194185683e+01 +1.4629346679e+01 +2.0158621103e+01 3.2704453761e+01 0.0000000000e+00 0.0000e+00 1.0000e+00
<mgrwt>
<rscale>  5 0.18304688E+03</rscale>
<asrwt>0</asrwt>
<pdfrwt beam="1">  1       21 0.13868986E+00 0.18304688E+03</pdfrwt>
<pdfrwt beam="2">  1       21 0.38406525E-01 0.18304688E+03</pdfrwt>
<totfact> 0.24184404E+03</totfact>
</mgrwt>
</event>
<event>
 7      1 +1.2627629e+02 1.92021400e+02 7.54677100e-03 1.12385500e-01
       21 -1    0    0  506  502 +0.0000000000e+00 +0.0000000000e+00 +3.0187838504e+02 3.0187838504e+02 0.0000000000e+00 0.0000e+00 1.0000e+00
       21 -1    0    0  502  503 -0.0000000000e+00 -0.0000000000e+00 -6.5913719394e+02 6.5913719394e+02 0.0000000000e+00 0.0000e+00 -1.0000e+00
        6  1    1    2  501    0 -1.2637657528e+02 +6.2328158395e+00 -1.7445622070e+02 2.7635820906e+02 1.7300000000e+02 0.0000e+00 -1.0000e+00
       -6  1    1    2    0  504 -6.0383908118e+01 -9.3678645578e+01 +9.3138239173e+01 2.2588854905e+02 1.7300000000e+02 0.0000e+00 1.0000e+00
       21  1    1    2  504  503 +2.8791651786e+01 +1.5069904678e+01 -1.4571927406e+02 1.4929892187e+02 0.0000000000e+00 0.0000e+00 -1.0000e+00
       21  1    1    2  505  501 +1.6928702386e+02 +9.2443045919e+01 -1.7414820843e+02 2.5986806592e+02 0.0000000000e+00 0.0000e+00 -1.0000e+00
       21  1    1    2  506  505 -1.1318192247e+01 -2.0067120859e+01 +4.3926655116e+01 4.9601833081e+01 0.0000000000e+00 0.0000e+00 1.0000e+00
<mgrwt>
<rscale>  5 0.19202143E+03</rscale>
<asrwt>0</asrwt>
<pdfrwt beam="1">  1       21 0.46442829E-01 0.19202143E+03</pdfrwt>
<pdfrwt beam="2">  1       21 0.10140572E+00 0.19202143E+03</pdfrwt>
<totfact> 0.35284703E+03</totfact>
</mgrwt>
</event>
<event>
 7      1 +1.2627629e+02 2.20778500e+02 7.54677100e-03 1.08953100e-01
       21 -1    0    0  506  502 +0.0000000000e+00 +0.0000000000e+00 +2.4615283970e+03 2.4615283970e+03 0.0000000000e+00 0.0000e+00 -1.0000e+00
       21 -1    0    0  501  503 -0.0000000000e+00 -0.0000000000e+00 -7.1807022301e+02 7.1807022301e+02 0.0000000000e+00 0.0000e+00 1.0000e+00
        6  1    1    2  501    0 -9.1413066446e+01 +6.0345238095e+01 +1.1707192160e+03 1.1884907990e+03 1.7300000000e+02 0.0000e+00 -1.0000e+00
       -6  1    1    2    0  502 +2.1093813452e+02 -8.3817272215e+01 +4.0422685425e+01 2.8824160909e+02 1.7300000000e+02 0.0000e+00 -1.0000e+00
       21  1    1    2  504  505 -1.1932394285e+01 -1.6472212312e+01 +1.3885012059e+00 2.0387342824e+01 0.0000000000e+00 0.0000e+00 -1.0000e+00
       21  1    1    2  505  503 -8.4891659077e+01 +3.1389174337e+01 -5.7208446352e+02 5.7919988557e+02 0.0000000000e+00 0.0000e+00 1.0000e+00
       21  1    1    2  506  504 -2.2701014708e+01 +8.5550720949e+00 +1.1030122348e+03 1.1032789835e+03 0.0000000000e+00 0.0000e+00 -1.0000e+00
<mgrwt>
<rscale>  5 0.22077845E+03</rscale>
<asrwt>0</asrwt>
<pdfrwt beam="1">  1       21 0.37869667E+00 0.22077845E+03</pdfrwt>
<pdfrwt beam="2">  1       21 0.11047234E+00 0.22077845E+03</pdfrwt>
<totfact> 0.71920732E+00</totfact>
</mgrwt>
</event>
<event>
 7      1 +1.2627629e+02 2.11196900e+02 7.54677100e-03 1.07499700e-01
       21 -1    0    0  505  502 +0.0000000000e+00 +0.0000000000e+00 +7.5183928037e+02 7.5183928037e+02 0.0000000000e+00 0.0000e+00 -1.0000e+00
       21 -1    0    0  501  503 -0.0000000000e+00 -0.0000000000e+00 -6.1610043648e+02 6.1610043648e+02 0.0000000000e+00 0.0000e+00 1.0000e+00
        6  1    1    2  501    0 -6.3910531216e+00 +1.4233911246e+02 -3.8545645369e+02 4.4587772560e+02 1.7300000000e+02 0.0000e+00 -1.0000e+00
       -6  1    1    2    0  506 -5.0180870556e+01 -6.6391300781e+01 -8.0321740913e+01 2.0810215437e+02 1.7300000000e+02 0.0000e+00 1.0000e+00
       21  1    1    2  504  503 -1.8108515819e+01 +1.1862526038e+01 -3.9521931741e+01 4.5062411805e+01 0.0000000000e+00 0.0000e+00 -1.0000e+00
       21  1    1    2  505  504 +5.2185509629e+01 -9.9813891415e+01 +2.2063995680e+02 2.4772591885e+02 0.0000000000e+00 0.0000e+00 -1.0000e+00
       21  1    1    2  506  502 +2.2494929868e+01 +1.2003553701e+01 +4.2039901342e+02 4.2117150623e+02 0.0000000000e+00 0.0000e+00 -1.0000e+00
<mgrwt>
<rscale>  5 0.21119693E+03</rscale>
<asrwt>0</asrwt>
<pdfrwt beam="1">  1       21 0.11566758E+00 0.21119693E+03</pdfrwt>
<pdfrwt beam="2">  1       21 0.94784683E-01 0.21119693E+03</pdfrwt>
<totfact> 0.52768245E+02</totfact>
</mgrwt>
</event>
<event>
 7      1 +1.2627629e+02 2.30067400e+02 7.54677100e-03 9.91481900e-02
       21 -1    0    0  501  502 +0.0000000000e+00 +0.0000000000e+00 +8.8728178605e+02 8.8728178605e+02 0.0000000000e+00 0.0000e+00 1.0000e+00
       21 -1    0    0  505  503 -0.0000000000e+00 -0.0000000000e+00 -7.4650957891e+02 7.4650957891e+02 0.0000000000e+00 0.0000e+00 1.0000e+00
        6  1    1    2  501    0 -8.9291463764e+00 +6.0813568620e+01 -6.8625077184e+01 1.9600107398e+02 1.7300000000e+02 0.0000e+00 1.0000e+00
       -6  1    1    2    0  506 -4.4133558707e+01 -1.5818095542e+02 +7.9793805348e+02 8.3282838739e+02 1.7300000000e+02 0.0000e+00 1.0000e+00
       21  1    1    2  504  502 +4.3811511786e+01 +5.2281979184e+01 -3.0502194122e+02 3.1255597665e+02 0.0000000000e+00 0.0000e+00 1.0000e+00
       21  1    1    2  505  504 +1.1757562303e+00 +2.3899077521e+01 -3.2464195703e+01 4.0329546386e+01 0.0000000000e+00 0.0000e+00 -1.0000e+00
       21  1    1    2  506  503 +8.0754370673e+00 +2.1186330093e+01 -2.5105463224e+02 2.5207638055e+02 0.0000000000e+00 0.0000e+00 1.0000e+00
<mgrwt>
<rscale>  5 0.23006737E+03</rscale>
<asrwt>0</asrwt>
<pdfrwt beam="1">  1       21 0.13650489E+00 0.23006737E+03</pdfrwt>
<pdfrwt beam="2">  1       21 0.11484763E+00 0.23006737E+03</pdfrwt>
<totfact> 0.21499350E+02</totfact>
</mgrwt>
</event>
<event>
 7      1 +1.2627629e+02 6.22594300e+02 7.54677100e-03 1.09359600e-01
       21 -1    0    0  505  502 +0.0000000000e+00 +0.0000000000e+00 +1.9825551733e+03 1.9825551733e+03 0.0000000000e+00 0.0000e+00 -1.0000e+00
       21 -1    0    0  506  503 -0.0000000000e+00 -0.0000000000e+00 -4.7607860482e+02 4.7607860482e+02 0.0000000000e+00 0.0000e+00 1.0000e+00
        6  1    1    2  501    0 +7.9372582873e+01 -6.1875571412e+02 +2.2170771084e+02 6.8428206883e+02 1.7300000000e+02 0.0000e+00 -1.0000e+00
       -6  1    1    2    0  504 -6.3847419473e+01 +5.6779048287e+02 +2.8731638492e+02 6.6252715450e+02 1.7300000000e+02 0.0000e+00 1.0000e+00
       21  1    1    2  504  503 -2.8904820524e+01 +9.4088744131e-01 -5.0213869164e+01 5.7946583809e+01 0.0000000000e+00 0.0000e+00 1.0000e+00
       21  1    1    2  505  501 -2.4579425566e+01 +2.1668535842e+00 +6.8507673010e+01 7.2815827105e+01 0.0000000000e+00 0.0000e+00 1.0000e+00
       21  1    1    2  506  502 +3.7959082690e+01 +4.7857490230e+01 +9.7915866891e+02 9.8106214392e+02 0.0000000000e+00 0.0000e+00 -1.0000e+00
<mgrwt>
<rscale>  5 0.62259431E+03</rscale>
<asrwt>0</asrwt>
<pdfrwt beam="1">  1       21 0.30500848E+00 0.62259431E+03</pdfrwt>
<pdfrwt beam="2">  1       21 0.73242863E-01 0.62259431E+03</pdfrwt>
<totfact> 0.36707639E+01</totfact>
</mgrwt>
</event>
<event>
 7      1 +1.2627629e+02 2.05110200e+02 7.54677100e-03 1.08953100e-01
       21 -1    0    0  506  502 +0.0000000000e+00 +0.0000000000e+00 +2.4204507106e+02 2.4204507106e+02 0.0000000000e+00 0.0000e+00 1.0000e+00
       21 -1    0    0  501  503 -0.0000000000e+00 -0.0000000000e+00 -1.0658087793e+03 1.0658087793e+03 0.0000000000e+00 0.0000e+00 -1.0000e+00
        6  1    1    2  501    0 +1.7579534403e+02 -5.8056675861e+01 -1.3661035838e+02 2.8786450044e+02 1.7300000000e+02 0.0000e+00 -1.0000e+00
       -6  1    1    2    0  502 -7.1080334376e+01 -2.8559747405e+01 +3.7121759495e+00 1.8923755800e+02 1.7300000000e+02 0.0000e+00 1.0000e+00
       21  1    1    2  504  505 -9.9650290495e+01 +3.2630472829e+01 -6.1050785214e+02 6.1944714518e+02 0.0000000000e+00 0.0000e+00 -1.0000e+00
       21  1    1    2  505  503 +1.6556671298e+01 +5.0284890124e+01 -1.3897517516e+02 1.4871715722e+02 0.0000000000e+00 0.0000e+00 -1.0000e+00
       21  1    1    2  506  504 -2.1621390456e+01 +3.7010603141e+00 +5.8617501458e+01 6.2587489564e+01 0.0000000000e+00 0.0000e+00 1.0000e+00
<mgrwt>
<rscale>  5 0.20511017E+03</rscale>
<asrwt>0</asrwt>
<pdfrwt beam="1">  1       21 0.37237703E-01 0.20511017E+03</pdfrwt>
<pdfrwt beam="2">  1       21 0.16397058E+00 0.20511017E+03</pdfrwt>
<totfact> 0.16180773E+03</totfact>
</mgrwt>
</event>
<event>
 7      1 +1.2627629e+02 2.92343200e+02 7.54677100e-03 1.07499700e-01
       21 -1    0    0  505  502 +0.0000000000e+00 +0.0000000000e+00 +7.2852978589e+02 7.2852978589e+02 0.0000000000e+00 0.0000e+00 1.0000e+00
       21 -1    0    0  501  503 -0.0000000000e+00 -0.0000000000e+00 -7.0678861118e+02 7.0678861118e+02 0.0000000000e+00 0.0000e+00 1.0000e+00
        6  1    1    2  501    0 -2.3396107499e+01 -1.7393877338e+02 +9.2662573444e+01 2.6328202986e+02 1.7300000000e+02 0.0000e+00 1.0000e+00
       -6  1    1    2    0  506 +9.3829906730e+01 +2.7249366839e+02 +4.0997543730e+02 5.3015630704e+02 1.7300000000e+02 0.0000e+00 1.0000e+00
       21  1    1    2  504  503 +9.4160159335e+00 -4.0600504491e+01 -3.4836662247e+02 3.5085091702e+02 0.0000000000e+00 0.0000e+00 1.0000e+00
       21  1    1    2  505  504 -5.7844291270e+01 -3.9730168218e+01 -2.0310702842e+02 2.1488814135e+02 0.0000000000e+00 0.0000e+00 1.0000e+00
       21  1    1    2  506  502 -2.2005523894e+01 -1.8224222299e+01 +7.0576814858e+01 7.6141001805e+01 0.0000000000e+00 0.0000e+00 -1.0000e+00
<mgrwt>
<rscale>  5 0.29234316E+03</rscale>
<asrwt>0</asrwt>
<pdfrwt beam="1">  1       21 0.11208151E+00 0.29234316E+03</pdfrwt>
<pdfrwt beam="2">  1       21 0.10873671E+00 0.29234316E+03</pdfrwt>
<totfact> 0.38174275E+02</totfact>
</mgrwt>
</event>
<event>
 7      1 +1.2627629e+02 2.02847900e+02 7.54677100e-03 1.17013600e-01
       21 -1    0    0  504  502 +0.0000000000e+00 +0.0000000000e+00 +2.7839565313e+02 2.7839565313e+02 0.0000000000e+00 0.0000e+00 1.0000e+00
       21 -1    0    0  506  503 -0.0000000000e+00 -0.0000000000e+00 -1.4247796607e+03 1.4247796607e+03 0.0000000000e+00 0.0000e+00 1.0000e+00
        6  1    1    2  501    0 +9.9095463724e+01 -1.9240118177e+02 -2.2938711269e+02 3.5970206164e+02 1.7300000000e+02 0.0000e+00 1.0000e+00
       -6  1    1    2    0  503 +6.2720761739e+00 +9.3542686721e+01 -1.0498403729e+03 1.0681214265e+03 1.7300000000e+02 0.0000e+00 1.0000e+00
       21  1    1    2  504  501 -2.3783494032e+01 +3.5354804753e+01 +1.3266315502e+02 1.3933818395e+02 0.0000000000e+00 0.0000e+00 1.0000e+00
       21  1    1    2  505  502 -3.8459795858e+01 -4.0443307777e+00 -3.1461418388e+01 4.9853117815e+01 0.0000000000e+00 0.0000e+00 -1.0000e+00
       21  1    1    2  506  505 -4.3124250008e+01 +6.7548021077e+01 +3.1641741374e+01 8.6160523950e+01 0.0000000000e+00 0.0000e+00 1.0000e+00
<mgrwt>
<rscale>  5 0.20284789E+03</rscale>
<asrwt>0</asrwt>
<pdfrwt beam="1">  1       21 0.42830101E-01 0.20284789E+03</pdfrwt>
<pdfrwt beam="2">  1       21 0.21919687E+00 0.20284789E+03</pdfrwt>
<totfact> 0.52682878E+02</totfact>
</mgrwt>
</event>
<event>
 7      1 +1.2627629e+02 1.86743600e+02 7.54677100e-03 1.08953100e-01
       21 -1    0    0  506  502 +0.0000000000e+00 +0.0000000000e+00 +1.1656635227e+03 1.1656635227e+03 0.0000000000e+00 0.0000e+00 -1.0000e+00
       21 -1    0    0  501  503 -0.0000000000e+00 -0.0000000000e+00 -1.4128358291e+02 1.4128358291e+02 0.0000000000e+00 0.0000e+00 1.0000e+00
        6  1    1    2  501    0 +1.2388968418e+01 -6.4885762273e+01 +1.7719423925e+02 2.5630147699e+02 1.7300000000e+02 0.0000e+00 1.0000e+00
       -6  1    1    2    0  502 -8.6849420348e+01 +4.6090096704e+01 +2.6811970025e+02 3.3389263618e+02 1.7300000000e+02 0.0000e+00 1.0000e+00
       21  1    1    2  504  505 +2.4269926037e+01 +5.7669733571e+01 -4.8048033853e+01 7.8888789046e+01 0.0000000000e+00 0.0000e+00 1.0000e+00
       21  1    1    2  505  503 +2.3450068030e+01 +3.2919562315e+00 +2.7989518446e+01 3.6662730521e+01 0.0000000000e+00 0.0000e+00 1.0000e+00
       21  1    1    2  506  504 +2.6740457863e+01 -4.2166024234e+01 +5.9912451568e+02 6.0120147287e+02 0.0000000000e+00 0.0000e+00 -1.0000e+00
<mgrwt>
<rscale>  5 0.18674356E+03</rscale>
<asrwt>0</asrwt>
<pdfrwt beam="1">  1       21 0.17933284E+00 0.18674356E+03</pdfrwt>
<pdfrwt beam="2">  1       21 0.21735937E-01 0.18674356E+03</pdfrwt>
<totfact> 0.36512188E+03</totfact>
</mgrwt>
</event>
<event>
 7      1 +1.2627629e+02 1.90589900e+02 7.54677100e-03 1.11751800e-01
       21 -1    0    0  505  502 +0.0000000000e+00 +0.0000000000e+00 +9.3502571094e+02 9.3502571094e+02 0.0000000000e+00 0.0000e+00 -1.0000e+00
       21 -1    0    0  501  503 -0.0000000000e+00 -0.0000000000e+00 -2.7747957318e+02 2.7747957318e+02 0.0000000000e+00 0.0000e+00 -1.0000e+00
        6  1    1    2  501    0 -4.6981195023e+00 +9.1617400796e+01 +7.2265401397e+02 7.4871466151e+02 1.7300000000e+02 0.0000e+00 -1.0000e+00
       -6  1    1    2    0  502 -3.4763339664e+01 -3.0563545648e+01 +9.0836815529e+01 2.0080574484e+02 1.7300000000e+02 0.0000e+00 1.0000e+00
       21  1    1    2  504  506 +3.9701558351e+01 -2.4447535298e+01 +2.4505609643e+01 5.2672769261e+01 0.0000000000e+00 0.0000e+00 -1.0000e+00
       21  1    1    2  505  504 +2.0411047849e+01 -4.2330770132e+00 +4.5772717263e+00 2.1342006273e+01 0.0000000000e+00 0.0000e+00 -1.0000e+00
       21  1    1    2  506  503 -2.0651147034e+01 -3.2373242836e+01 -1.8502757311e+02 1.8897010223e+02 0.0000000000e+00 0.0000e+00 -1.0000e+00
<mgrwt>
<rscale>  5 0.19058988E+03</rscale>
<asrwt>0</asrwt>
<pdfrwt beam="1">  1       21 0.14385011E+00 0.19058988E+03</pdfrwt>
<pdfrwt beam="2">  1       21 0.42689166E-01 0.19058988E+03</pdfrwt>
<totfact> 0.17640081E+03</totfact>
</mgrwt>
</event>
<event>
 7      1 +1.2627629e+02 1.76954600e+02 7.54677100e-03 1.17191400e-01
       21 -1    0    0  504  502 +0.0000000000e+00 +0.0000000000e+00 +1.5256107623e+03 1.5256107623e+03 0.0000000000e+00 0.0000e+00 -1.0000e+00
       21 -1    0    0  501  503 -0.0000000000e+00 -0.0000000000e+00 -5.7035680116e+02 5.7035680116e+02 0.0000000000e+00 0.0000e+00 1.0000e+00
        6  1    1    2  501    0 +2.1227595935e+01 -2.0191012995e+00 -9.2630233932e+01 1.9739313017e+02 1.7300000000e+02 0.0000e+00 -1.0000e+00
       -6  1    1    2    0  505 -5.2820830550e+01 -2.8268724285e+01 +5.3154110948e+01 1.9063976611e+02 1.7300000000e+02 0.0000e+00 1.0000e+00
       21  1    1    2  504  506 +2.6591203070e+01 +1.5480522396e+01 +1.3139991451e+03 1.3143593466e+03 0.0000000000e+00 0.0000e+00 -1.0000e+00
       21  1    1    2  505  502 -1.0270678145e+01 +2.9104074549e+01 +3.0376574903e+01 4.3304391091e+01 0.0000000000e+00 0.0000e+00 -1.0000e+00
       21  1    1    2  506  503 +1.5272709689e+01 -1.4296771360e+01 -3.4964563590e+02 3.5027092947e+02 0.0000000000e+00 0.0000e+00 1.0000e+00
<mgrwt>
<rscale>  5 0.17695462E+03</rscale>
<asrwt>0</asrwt>
<pdfrwt beam="1">  1       21 0.23470935E+00 0.17695462E+03</pdfrwt>
<pdfrwt beam="2">  1       21 0.87747201E-01 0.17695462E+03</pdfrwt>
<totfact> 0.93573282E+01</totfact>
</mgrwt>
</event>
<event>
 7      1 +1.2627629e+02 2.23596400e+02 7.54677100e-03 1.12821900e-01
       21 -1    0    0  501  502 +0.0000000000e+00 +0.0000000000e+00 +1.1069296202e+02 1.1069296202e+02 0.0000000000e+00 0.0000e+00 1.0000e+00
       21 -1    0    0  504  503 -0.0000000000e+00 -0.0000000000e+00 -1.6588592933e+03 1.6588592933e+03 0.0000000000e+00 0.0000e+00 1.0000e+00
        6  1    1    2  501    0 -1.5449809046e+02 -6.1521372247e+01 -3.5562198129e+02 4.2901111032e+02 1.7300000000e+02 0.0000e+00 -1.0000e+00
       -6  1    1    2    0  505 -2.9969830550e+01 +1.9780351605e+02 -4.4910349973e+02 5.2119801916e+02 1.7300000000e+02 0.0000e+00 1.0000e+00
       21  1    1    2  504  506 +1.3404849152e+02 -9.9855259070e+01 -6.6034773903e+02 6.8117487276e+02 0.0000000000e+00 0.0000e+00 1.0000e+00
       21  1    1    2  505  503 +2.5400099643e+01 -8.2731065829e+00 +1.6700015216e+01 3.1503965824e+01 0.0000000000e+00 0.0000e+00 -1.0000e+00
       21  1    1    2  506  502 +2.5019329848e+01 -2.8153778151e+01 -9.9793126499e+01 1.0666428731e+02 0.0000000000e+00 0.0000e+00 -1.0000e+00
<mgrwt>
<rscale>  5 0.22359637E+03</rscale>
<asrwt>0</asrwt>
<pdfrwt beam="1">  1       21 0.17029688E-01 0.22359637E+03</pdfrwt>
<pdfrwt beam="2">  1       21 0.25520909E+00 0.22359637E+03</pdfrwt>
<totfact> 0.18626369E+03</totfact>
</mgrwt>
</event>
<event>
 7      1 +1.2627629e+02 2.03113900e+02 7.54677100e-03 1.17407200e-01
       21 -1    0    0  503  502 +0.0000000000e+00 +0.0000000000e+00 +9.1851663820e+02 9.1851663820e+02 0.0000000000e+00 0.0000e+00 1.0000e+00
       21 -1    0    0  501  503 -0.0000000000e+00 -0.0000000000e+00 -3.7144052539e+02 3.7144052539e+02 0.0000000000e+00 0.0000e+00 1.0000e+00
        6  1    1    2  501    0 +3.1149084502e+00 -1.1474043723e+02 +1.8029794652e+02 2.7497530818e+02 1.7300000000e+02 0.0000e+00 1.0000e+00
       -6  1    1    2    0  504 +5.9942639015e+01 +7.2492669855e+01 +2.9723089577e+02 3.5654384380e+02 1.7300000000e+02 0.0000e+00 -1.0000e+00
       21  1    1    2  504  506 +3.2157704818e+01 +1.3685526916e+02 +2.3741809382e+02 2.7591816531e+02 0.0000000000e+00 0.0000e+00 1.0000e+00
       21  1    1    2  505  502 -9.4088502856e+00 -1.1899815059e+02 +6.3028536752e+01 1.3498771334e+02 0.0000000000e+00 0.0000e+00 1.0000e+00
       21  1    1    2  506  505 -8.5806401998e+01 +2.4390648807e+01 -2.3089936005e+02 2.4753213295e+02 0.0000000000e+00 0.0000e+00 1.0000e+00
<mgrwt>
<rscale>  5 0.20311391E+03</rscale>
<asrwt>0</asrwt>
<pdfrwt beam="1">  1       21 0.14131025E+00 0.20311391E+03</pdfrwt>
<pdfrwt beam="2">  1       21 0.57144697E-01 0.20311391E+03</pdfrwt>
<totfact> 0.99387090E+02</totfact>
</mgrwt>
</event>
<event>
 7      1 +1.2627629e+02 2.74207700e+02 7.54677100e-03 1.17141900e-01
       21 -1    0    0  501  502 +0.0000000000e+00 +0.0000000000e+00 +4.1608152396e+02 4.1608152396e+02 0.0000000000e+00 0.0000e+00 -1.0000e+00
       21 -1    0    0  504  503 -0.0000000000e+00 -0.0000000000e+00 -6.6918630752e+02 6.6918630752e+02 0.0000000000e+00 0.0000e+00 1.0000e+00
        6  1    1    2  501    0 +2.5571780174e+02 -1.4259216131e+01 -3.5942063312e+01 3.1115229597e+02 1.7300000000e+02 0.0000e+00 -1.0000e+00
       -6  1    1    2    0  506 -1.8719532740e+02 -1.0685534447e+01 -3.5060605486e+02 4.3360105737e+02 1.7300000000e+02 0.0000e+00 1.0000e+00
       21  1    1    2  504  505 -2.1234173689e+01 -3.6590096142e+01 +1.0020564814e+02 1.0876992777e+02 0.0000000000e+00 0.0000e+00 -1.0000e+00
       21  1    1    2  505  502 -3.0042282544e+01 +2.6919689485e+01 +1.2543657416e+02 1.3176320640e+02 0.0000000000e+00 0.0000e+00 -1.0000e+00
       21  1    1    2  506  503 -1.7246018104e+01 +3.4615157236e+01 -9.2198887693e+01 9.9981343974e+01 0.0000000000e+00 0.0000e+00 1.0000e+00
<mgrwt>
<rscale>  5 0.27420767E+03</rscale>
<asrwt>0</asrwt>
<pdfrwt beam="1">  1       21 0.64012542E-01 0.27420767E+03</pdfrwt>
<pdfrwt beam="2">  1       21 0.10295174E+00 0.27420767E+03</pdfrwt>
<totfact> 0.16168894E+03</totfact>
</mgrwt>
</event>
<event>
 7      1 +1.2627629e+02 2.61282400e+02 7.54677100e-03 1.06794800e-01
       21 -1    0    0  504  502 +0.0000000000e+00 +0.0000000000e+00 +3.8669162977e+02 3.8669162977e+02 0.0000000000e+00 0.0000e+00 1.0000e+00
       21 -1    0    0  506  503 -0.0000000000e+00 -0.0000000000e+00 -4.4039547418e+02 4.4039547418e+02 0.0000000000e+00 0.0000e+00 1.0000e+00
        6  1    1    2  501    0 -4.1915658149e+01 +4.9467368660e+01 +1.3143145819e+02 2.2673149574e+02 1.7300000000e+02 0.0000e+00 1.0000e+00
       -6  1    1    2    0  503 +1.7877472662e+01 -2.2983193813e+02 -3.5052912290e+01 2.9034467530e+02 1.7300000000e+02 0.0000e+00 1.0000e+00
       21  1    1    2  504  505 +1.4595022081e+01 +1.2635592893e+02 -8.9551146511e+01 1.5555784547e+02 0.0000000000e+00 0.0000e+00 1.0000e+00
       21  1    1    2  505  501 +3.1092921310e+01 -3.8026021282e+00 +3.0986532902e+01 4.4061261442e+01 0.0000000000e+00 0.0000e+00 1.0000e+00
       21  1    1    2  506  502 -2.1649757904e+01 +5.7811242666e+01 -9.1517776693e+01 1.1039182600e+02 0.0000000000e+00 0.0000e+00 1.0000e+00
<mgrwt>
<rscale>  5 0.23846142E+03</rscale>
<asrwt>0</asrwt>
<pdfrwt beam="1">  1       21 0.59491020E-01 0.26128240E+03</pdfrwt>
<pdfrwt beam="2">  1       21 0.67753150E-01 0.26128240E+03</pdfrwt>
<totfact> 0.50123163E+03</totfact>
</mgrwt>
</event>
<event>
 7      1 +1.2627629e+02 2.76551100e+02 7.54677100e-03 1.06794800e-01
       21 -1    0    0  504  502 +0.0000000000e+00 +0.0000000000e+00 +1.2721255836e+03 1.2721255836e+03 0.0000000000e+00 0.0000e+00 -1.0000e+00
       21 -1    0    0  506  503 -0.0000000000e+00 -0.0000000000e+00 -5.9822338018e+02 5.9822338018e+02 0.0000000000e+00 0.0000e+00 1.0000e+00
        6  1    1    2  501    0 +1.1045795068e+02 +1.6339461905e+02 -3.1105790519e+02 4.0692109896e+02 1.7300000000e+02 0.0000e+00 1.0000e+00
       -6  1    1    2    0  503 -1.2867707299e+02 -1.9193544177e+02 +4.0420779972e+02 4.9669905202e+02 1.7300000000e+02 0.0000e+00 -1.0000e+00
       21  1    1    2  504  505 +2.7967386282e+01 -4.2682968582e+01 -7.3610206652e+00 5.1557687377e+01 0.0000000000e+00 0.0000e+00 1.0000e+00
       21  1    1    2  505  501 -3.0193247492e+01 +4.3906851158e+01 +7.4890536914e+02 7.5079870518e+02 0.0000000000e+00 0.0000e+00 -1.0000e+00
       21  1    1    2  506  502 +2.0444983512e+01 +2.7316940144e+01 -1.6079203955e+02 1.6437242029e+02 0.0000000000e+00 0.0000e+00 -1.0000e+00
<mgrwt>
<rscale>  5 0.27655112E+03</rscale>
<asrwt>0</asrwt>
<pdfrwt beam="1">  1       21 0.19571163E+00 0.27655112E+03</pdfrwt>
<pdfrwt beam="2">  1       21 0.92034367E-01 0.27655112E+03</pdfrwt>
<totfact> 0.12948222E+02</totfact>
</mgrwt>
</event>
<event>
 7      1 +1.2627629e+02 2.10493700e+02 7.54677100e-03 1.16278100e-01
       21 -1    0    0  504  502 +0.0000000000e+00 +0.0000000000e+00 +3.7661476412e+02 3.7661476412e+02 0.0000000000e+00 0.0000e+00 -1.0000e+00
       21 -1    0    0  501  503 -0.0000000000e+00 -0.0000000000e+00 -2.6861378279e+02 2.6861378279e+02 0.0000000000e+00 0.0000e+00 -1.0000e+00
        6  1    1    2  501    0 -4.8337925472e+01 +1.3116249197e+02 -1.0555555173e+02 2.4619327538e+02 1.7300000000e+02 0.0000e+00 -1.0000e+00
       -6  1    1    2    0  505 +5.7735756268e+01 -5.7349525984e+01 +1.1445578333e+02 2.2282619240e+02 1.7300000000e+02 0.0000e+00 -1.0000e+00
       21  1    1    2  504  503 +3.0224922839e+01 -1.6667454065e+01 +2.5315032171e+01 4.2804215207e+01 0.0000000000e+00 0.0000e+00 -1.0000e+00
       21  1    1    2  505  506 -3.2051530821e+01 -1.6304751425e+01 -1.2149871441e+01 3.7957409330e+01 0.0000000000e+00 0.0000e+00 -1.0000e+00
       21  1    1    2  506  502 -7.5712228137e+00 -4.0840760500e+01 +8.5935588995e+01 9.5447454596e+01 0.0000000000e+00 0.0000e+00 -1.0000e+00
<mgrwt>
<rscale>  5 0.21049373E+03</rscale>
<asrwt>0</asrwt>
<pdfrwt beam="1">  1       21 0.57940733E-01 0.21049373E+03</pdfrwt>
<pdfrwt beam="2">  1       21 0.41325197E-01 0.21049373E+03</pdfrwt>
<totfact> 0.15571047E+04</totfact>
</mgrwt>
</event>
<event>
 7      1 +1.2627629e+02 2.48736500e+02 7.54677100e-03 1.06502400e-01
       21 -1    0    0  501  502 +0.0000000000e+00 +0.0000000000e+00 +4.8394511286e+02 4.8394511286e+02 0.0000000000e+00 0.0000e+00 -1.0000e+00
       21 -1    0    0  504  503 -0.0000000000e+00 -0.0000000000e+00 -6.9364025277e+02 6.9364025277e+02 0.0000000000e+00 0.0000e+00 1.0000e+00
        6  1    1    2  501    0 -3.8927129442e+01 -1.4627691349e+02 -2.5257081881e+02 3.4151614214e+02 1.7300000000e+02 0.0000e+00 1.0000e+00
       -6  1    1    2    0  506 -9.3678763553e+00 +1.5871723107e+02 +1.3118513380e+02 2.6910491611e+02 1.7300000000e+02 0.0000e+00 -1.0000e+00
       21  1    1    2  504  502 -1.6732914274e+01 +1.9971302436e+01 +2.0715534092e+02 2.0878740051e+02 0.0000000000e+00 0.0000e+00 -1.0000e+00
       21  1    1    2  505  503 +5.7085886278e+01 -5.2443358031e+01 -3.1781400556e+02 3.2713123719e+02 0.0000000000e+00 0.0000e+00 1.0000e+00
       21  1    1    2  506  505 +7.9420337926e+00 +2.0031738015e+01 +2.2349209757e+01 3.1045669673e+01 0.0000000000e+00 0.0000e+00 1.0000e+00
<mgrwt>
<rscale>  5 0.24873651E+03</rscale>
<asrwt>0</asrwt>
<pdfrwt beam="1">  1       21 0.74453095E-01 0.24873651E+03</pdfrwt>
<pdfrwt beam="2">  1       21 0.10671388E+00 0.24873651E+03</pdfrwt>
<totfact> 0.10801207E+03</totfact>
</mgrwt>
</event>
<event>
 7      1 +1.2627629e+02 4.46023400e+02 7.54677100e-03 1.06794800e-01
       21 -1    0    0  504  502 +0.0000000000e+00 +0.0000000000e+00 +6.1867768947e+02 6.1867768947e+02 0.0000000000e+00 0.0000e+00 -1.0000e+00
       21 -1    0    0  506  503 -0.0000000000e+00 -0.0000000000e+00 -7.1185583964e+02 7.1185583964e+02 0.0000000000e+00 0.0000e+00 -1.0000e+00
        6  1    1    2  501    0 +1.8367855252e+02 -2.0764106837e+02 -1.0383864402e+01 3.2693951821e+02 1.7300000000e+02 0.0000e+00 -1.0000e+00
       -6  1    1    2    0  503 -2.6059433635e+02 -2.6437902297e+02 -4.4793590023e+01 4.1199653109e+02 1.7300000000e+02 0.0000e+00 1.0000e+00
       21  1    1    2  504  505 +2.2368933726e+01 +3.1546391943e+02 +1.8111382547e+01 3.1677417166e+02 0.0000000000e+00 0.0000e+00 -1.0000e+00
       21  1    1    2  505  501 -7.0317183148e+01 +1.5790358567e+01 +1.5101106397e+01 7.3633450849e+01 0.0000000000e+00 0.0000e+00 1.0000e+00
       21  1    1    2  506  502 +1.2486403324e+02 +1.4076581334e+02 -7.1213184695e+01 2.0118985729e+02 0.0000000000e+00 0.0000e+00 -1.0000e+00
<mgrwt>
<rscale>  5 0.40910939E+03</rscale>
<asrwt>0</asrwt>
<pdfrwt beam="1">  1       21 0.95181183E-01 0.44602342E+03</pdfrwt>
<pdfrwt beam="2">  1       21 0.10951628E+00 0.44602342E+03</pdfrwt>
<totfact> 0.51047603E+02</totfact>
</mgrwt>
</event>
<event>
 7      1 +1.2627629e+02 1.88885700e+02 7.54677100e-03 1.16636900e-01
       21 -1    0    0  504  502 +0.0000000000e+00 +0.0000000000e+00 +1.4345782493e+02 1.4345782493e+02 0.0000000000e+00 0.0000e+00 1.0000e+00
       21 -1    0    0  506  503 -0.0000000000e+00 -0.0000000000e+00 -1.6477804236e+03 1.6477804236e+03 0.0000000000e+00 0.0000e+00 1.0000e+00
        6  1    1    2  501    0 +2.7744936287e+01 +1.4085373489e+02 -9.4813368903e+02 9.7442087847e+02 1.7300000000e+02 0.0000e+00 1.0000e+00
       -6  1    1    2    0  503 +2.5824800680e+01 +3.3220502600e+01 -3.4116370945e+02 3.8482749222e+02 1.7300000000e+02 0.0000e+00 -1.0000e+00
       21  1    1    2  504  501 +1.8015735502e+01 +4.6394084508e+01 +4.0919747997e+01 6.4431386599e+01 0.0000000000e+00 0.0000e+00 1.0000e+00
       21  1    1    2  505  502 -5.5724051972e+00 -1.3290300368e+02 -6.6624928245e+01 1.4877211147e+02 0.0000000000e+00 0.0000e+00 1.0000e+00
       21  1    1    2  506  505 -6.6013067272e+01 -8.7565318317e+01 -1.8932001998e+02 2.1878637980e+02 0.0000000000e+00 0.0000e+00 1.0000e+00
<mgrwt>
<rscale>  5 0.18888568E+03</rscale>
<asrwt>0</asrwt>
<pdfrwt beam="1">  1       21 0.22070435E-01 0.18888568E+03</pdfrwt>
<pdfrwt beam="2">  1       21 0.25350467E+00 0.18888568E+03</pdfrwt>
<totfact> 0.12224589E+03</totfact>
</mgrwt>
</event>
<event>
 7      1 +1.2627629e+02 1.85961200e+02 7.54677100e-03 1.07499700e-01
       21 -1    0    0  504  502 +0.0000000000e+00 +0.0000000000e+00 +5.7750770169e+02 5.7750770169e+02 0.0000000000e+00 0.0000e+00 1.0000e+00
       21 -1    0    0  501  503 -0.0000000000e+00 -0.0000000000e+00 -4.3510854749e+02 4.3510854749e+02 0.0000000000e+00 0.0000e+00 1.0000e+00
        6  1    1    2  501    0 -1.9482466783e+01 +3.7670181238e+01 +3.6705673333e+00 1.7816027091e+02 1.7300000000e+02 0.0000e+00 -1.0000e+00
       -6  1    1    2    0  506 -1.0866389984e+02 +5.2534921445e+01 -1.8683858274e+02 2.8178966819e+02 1.7300000000e+02 0.0000e+00 1.0000e+00
       21  1    1    2  504  505 +2.6272975713e+01 -1.4467972602e+00 +3.0684169999e+01 4.0421290970e+01 0.0000000000e+00 0.0000e+00 1.0000e+00
       21  1    1    2  505  503 +1.2576150761e+02 -7.8089227340e+01 -5.7561543163e+01 1.5883077622e+02 0.0000000000e+00 0.0000e+00 1.0000e+00
       21  1    1    2  506  502 -2.3888116697e+01 -1.0669078083e+01 +3.5244454277e+02 3.5341424289e+02 0.0000000000e+00 0.0000e+00 1.0000e+00
<mgrwt>
<rscale>  5 0.18596120E+03</rscale>
<asrwt>0</asrwt>
<pdfrwt beam="1">  1       21 0.88847339E-01 0.18596120E+03</pdfrwt>
<pdfrwt beam="2">  1       21 0.66939776E-01 0.18596120E+03</pdfrwt>
<totfact> 0.22258159E+03</totfact>
</mgrwt>
</event>
<event>
 7      1 +1.2627629e+02 4.30384500e+02 7.54677100e-03 1.09359600e-01
       21 -1    0    0  505  502 +0.0000000000e+00 +0.0000000000e+00 +6.3466199875e+02 6.3466199875e+02 0.0000000000e+00 0.0000e+00 1.0000e+00
       21 -1    0    0  506  503 -0.0000000000e+00 -0.0000000000e+00 -6.4333839765e+02 6.4333839765e+02 0.0000000000e+00 0.0000e+00 1.0000e+00
        6  1    1    2  501    0 +3.8198285641e+01 +1.0435053468e+02 -3.0012181778e+02 3.6379973697e+02 1.7300000000e+02 0.0000e+00 1.0000e+00
       -6  1    1    2    0  504 -3.0618414989e+01 +1.0095071840e+02 -1.2909509910e+02 2.4025627878e+02 1.7300000000e+02 0.0000e+00 -1.0000e+00
       21  1    1    2  504  503 -3.1632230472e+01 -6.5586425622e+00 -5.8242064465e+01 6.6601440450e+01 0.0000000000e+00 0.0000e+00 1.0000e+00
       21  1    1    2  505  501 +2.2647422282e+01 +7.6489894914e+01 +2.0120188233e+02 2.1643892259e+02 0.0000000000e+00 0.0000e+00 1.0000e+00
       21  1    1    2  506  502 +1.4049375386e+00 -2.7523250544e+02 +2.7758070011e+02 3.9090401760e+02 0.0000000000e+00 0.0000e+00 1.0000e+00
<mgrwt>
<rscale>  5 0.43038452E+03</rscale>
<asrwt>0</asrwt>
<pdfrwt beam="1">  1       21 0.97640307E-01 0.43038452E+03</pdfrwt>
<pdfrwt beam="2">  1       21 0.98975138E-01 0.43038452E+03</pdfrwt>
<totfact> 0.61986492E+02</totfact>
</mgrwt>
</event>
<event>
 7      1 +1.2627629e+02 1.79135700e+02 7.54677100e-03 1.10035100e-01
       21 -1    0    0  501  502 +0.0000000000e+00 +0.0000000000e+00 +3.8341861057e+02 3.8341861057e+02 0.0000000000e+00 0.0000e+00 -1.0000e+00
       21 -1    0    0  505  503 -0.0000000000e+00 -0.0000000000e+00 -5.9494153447e+02 5.9494153447e+02 0.0000000000e+00 0.0000e+00 -1.0000e+00
        6  1    1    2  501    0 +2.8555011876e+01 -5.1456375618e+01 +2.2959791450e+02 2.9344053851e+02 1.7300000000e+02 0.0000e+00 -1.0000e+00
       -6  1    1    2    0  503 -3.9363127487e+01 -3.4446800547e+00 +5.1770996031e+01 1.8485279997e+02 1.7300000000e+02 0.0000e+00 -1.0000e+00
       21  1    1    2  504  506 -4.3913417743e-02 +2.1247429843e+01 -1.1445109638e+02 1.1640665216e+02 0.0000000000e+00 0.0000e+00 1.0000e+00
       21  1    1    2  505  504 -1.5052827470e+01 +2.8549704611e+01 -2.7563358870e+02 2.7751675349e+02 0.0000000000e+00 0.0000e+00 -1.0000e+00
       21  1    1    2  506  502 +2.5904856499e+01 +5.1039212187e+00 -1.0280714935e+02 1.0614340093e+02 0.0000000000e+00 0.0000e+00 -1.0000e+00
<mgrwt>
<rscale>  5 0.17913573E+03</rscale>
<asrwt>0</asrwt>
<pdfrwt beam="1">  1       21 0.58987479E-01 0.17913573E+03</pdfrwt>
<pdfrwt beam="2">  1       21 0.91529466E-01 0.17913573E+03</pdfrwt>
<totfact> 0.27480081E+03</totfact>
</mgrwt>
</event>
<event>
 7      1 +1.2627629e+02 1.74966900e+02 7.54677100e-03 1.12821900e-01
       21 -1    0    0  501  502 +0.0000000000e+00 +0.0000000000e+00 +2.7615160467e+02 2.7615160467e+02 0.0000000000e+00 0.0000e+00 1.0000e+00
       21 -1    0    0  504  503 -0.0000000000e+00 -0.0000000000e+00 -1.0605755069e+03 1.0605755069e+03 0.0000000000e+00 0.0000e+00 1.0000e+00
        6  1    1    2  501    0 +4.7442938998e+00 -6.4610040934e+01 -2.6451045250e+01 1.8661624664e+02 1.7300000000e+02 0.0000e+00 -1.0000e+00
       -6  1    1    2    0  505 +4.3519611315e+01 +1.4233942374e+01 -1.4462328864e+02 2.3009010692e+02 1.7300000000e+02 0.0000e+00 -1.0000e+00
       21  1    1    2  504  506 -5.8894419876e+01 -1.0794317207e+01 -7.0986742127e+02 7.1238811455e+02 0.0000000000e+00 0.0000e+00 1.0000e+00
       21  1    1    2  505  503 +2.8437683449e+01 +7.1558204102e+01 +1.3984944142e+02 1.5964693759e+02 0.0000000000e+00 0.0000e+00 1.0000e+00
       21  1    1    2  506  502 -1.7807168787e+01 -1.0387788335e+01 -4.3331588485e+01 4.7985705865e+01 0.0000000000e+00 0.0000e+00 1.0000e+00
<mgrwt>
<rscale>  5 0.17496688E+03</rscale>
<asrwt>0</asrwt>
<pdfrwt beam="1">  1       21 0.42484862E-01 0.17496688E+03</pdfrwt>
<pdfrwt beam="2">  1       21 0.16316546E+00 0.17496688E+03</pdfrwt>
<totfact> 0.12967693E+03</totfact>
</mgrwt>
</event>
<event>
 7      1 +1.2627629e+02 1.98023900e+02 7.54677100e-03 1.10474300e-01
       21 -1    0    0  501  502 +0.0000000000e+00 +0.0000000000e+00 +1.3363206906e+03 1.3363206906e+03 0.0000000000e+00 0.0000e+00 1.0000e+00
       21 -1    0    0  506  503 -0.0000000000e+00 -0.0000000000e+00 -4.1119871023e+02 4.1119871023e+02 0.0000000000e+00 0.0000e+00 1.0000e+00
        6  1    1    2  501    0 -8.8413376765e+01 +2.8811263631e+01 +1.1361782518e+03 1.1530295027e+03 1.7300000000e+02 0.0000e+00 1.0000e+00
       -6  1    1    2    0  503 +1.2424155061e+02 -1.0918287962e+02 -4.1570341130e+01 2.4292788510e+02 1.7300000000e+02 0.0000e+00 1.0000e+00
       21  1    1    2  504  505 -6.8156528272e+01 +1.3364000255e+02 -1.0890042706e+02 1.8537601151e+02 0.0000000000e+00 0.0000e+00 1.0000e+00
       21  1    1    2  505  502 +2.0713697083e+01 -9.1796804325e+01 -7.8106488645e+01 1.2229609192e+02 0.0000000000e+00 0.0000e+00 1.0000e+00
       21  1    1    2  506  504 +1.1614657345e+01 +3.8528417755e+01 +1.7520985402e+01 4.3889909653e+01 0.0000000000e+00 0.0000e+00 1.0000e+00
<mgrwt>
<rscale>  5 0.19802392E+03</rscale>
<asrwt>0</asrwt>
<pdfrwt beam="1">  1       21 0.20558780E+00 0.19802392E+03</pdfrwt>
<pdfrwt beam="2">  1       21 0.63261341E-01 0.19802392E+03</pdfrwt>
<totfact> 0.28397739E+02</totfact>
</mgrwt>
</event>
<event>
 7      1 +1.2627629e+02 1.83490300e+02 7.54677100e-03 1.17141900e-01
       21 -1    0    0  501  502 +0.0000000000e+00 +0.0000000000e+00 +1.0631985961e+03 1.0631985961e+03 0.0000000000e+00 0.0000e+00 -1.0000e+00
       21 -1    0    0  506  503 -0.0000000000e+00 -0.0000000000e+00 -1.0428633828e+02 1.0428633828e+02 0.0000000000e+00 0.0000e+00 -1.0000e+00
        6  1    1    2  501    0 +6.0259810389e+01 +1.0131829538e+01 +7.2506497406e+02 7.4791852185e+02 1.7300000000e+02 0.0000e+00 -1.0000e+00
       -6  1    1    2    0  503 -4.0526215867e+01 -7.8068170444e+01 +1.6939563738e+02 2.5760608567e+02 1.7300000000e+02 0.0000e+00 1.0000e+00
       21  1    1    2  504  502 -6.1338663967e-01 +3.5146487001e+01 +6.5287010115e+01 7.4148806338e+01 0.0000000000e+00 0.0000e+00 -1.0000e+00
       21  1    1    2  505  504 +7.6265886649e+00 +2.2721303471e+01 +3.4723251459e+01 4.2191547471e+01 0.0000000000e+00 0.0000e+00 1.0000e+00
       21  1    1    2  506  505 -2.6746796548e+01 +1.0068550434e+01 -3.5558615154e+01 4.5619973094e+01 0.0000000000e+00 0.0000e+00 -1.0000e+00
<mgrwt>
<rscale>  5 0.18349032E+03</rscale>
<asrwt>0</asrwt>
<pdfrwt beam="1">  1       21 0.16356901E+00 0.18349032E+03</pdfrwt>
<pdfrwt beam="2">  1       21 0.16044053E-01 0.18349032E+03</pdfrwt>
<totfact> 0.82870812E+03</totfact>
</mgrwt>
</event>
<event>
 7      1 +1.2627629e+02 3.28890400e+02 7.54677100e-03 9.91481900e-02
       21 -1    0    0  501  502 +0.0000000000e+00 +0.0000000000e+00 +6.2650476573e+02 6.2650476573e+02 0.0000000000e+00 0.0000e+00 -1.0000e+00
       21 -1    0    0  505  503 -0.0000000000e+00 -0.0000000000e+00 -5.5707519186e+02 5.5707519186e+02 0.0000000000e+00 0.0000e+00 -1.0000e+00
        6  1    1    2  501    0 +1.0390611804e+01 -1.6645605287e+02 +3.1161436847e+02 3.9350742939e+02 1.7300000000e+02 0.0000e+00 -1.0000e+00
       -6  1    1    2    0  506 -2.4863639013e+02 +2.3728007112e+01 -6.1203622618e+01 3.0993218006e+02 1.7300000000e+02 0.0000e+00 1.0000e+00
       21  1    1    2  504  502 +2.2255505326e+02 +1.2264220554e+02 -1.1033912035e+02 2.7703173788e+02 0.0000000000e+00 0.0000e+00 -1.0000e+00
       21  1    1    2  505  504 +6.6849106323e+01 +6.2214224408e+01 +1.7347554939e+01 9.2953485127e+01 0.0000000000e+00 0.0000e+00 1.0000e+00
       21  1    1    2  506  503 -5.1158381261e+01 -4.2128384191e+01 -8.7989606568e+01 1.1015512513e+02 0.0000000000e+00 0.0000e+00 -1.0000e+00
<mgrwt>
<rscale>  5 0.30485149E+03</rscale>
<asrwt>0</asrwt>
<pdfrwt beam="1">  1       21 0.96385348E-01 0.32889043E+03</pdfrwt>
<pdfrwt beam="2">  1       21 0.85703876E-01 0.32889043E+03</pdfrwt>
<totfact> 0.94799380E+02</totfact>
</mgrwt>
</event>
<event>
 7      1 +1.2627629e+02 2.01465700e+02 7.54677100e-03 1.07499700e-01
       21 -1    0    0  505  502 +0.0000000000e+00 +0.0000000000e+00 +7.7839469832e+02 7.7839469832e+02 0.0000000000e+00 0.0000e+00 1.0000e+00
       21 -1    0    0  501  503 -0.0000000000e+00 -0.0000000000e+00 -7.6910718075e+02 7.6910718075e+02 0.0000000000e+00 0.0000e+00 -1.0000e+00
        6  1    1    2  501    0 -1.7447998087e+02 -1.4742085715e+01 -2.3481110575e+02 3.4018502054e+02 1.7300000000e+02 0.0000e+00 -1.0000e+00
       -6  1    1    2    0  506 +6.1407392450e+01 +1.2968141195e+01 -3.9734831741e+02 4.3789693523e+02 1.7300000000e+02 0.0000e+00 1.0000e+00
       21  1    1    2  504  503 +1.5210751302e+01 +1.5692179474e+01 -1.3844214985e+01 2.5870325478e+01 0.0000000000e+00 0.0000e+00 -1.0000e+00
       21  1    1    2  505  504 +1.4230288557e+02 +1.3278963161e+01 +7.5908181387e+01 1.6182859484e+02 0.0000000000e+00 0.0000e+00 -1.0000e+00
       21  1    1    2  506  502 -4.4441048455e+01 -2.7197198116e+01 +5.7938297433e+02 5.8172100299e+02 0.0000000000e+00 0.0000e+00 1.0000e+00
<mgrwt>
<rscale>  5 0.20146568E+03</rscale>
<asrwt>0</asrwt>
<pdfrwt beam="1">  1       21 0.11975303E+00 0.20146568E+03</pdfrwt>
<pdfrwt beam="2">  1       21 0.11832418E+00 0.20146568E+03</pdfrwt>
<totfact> 0.28721764E+02</totfact>
</mgrwt>
</event>
<event>
 7      1 +1.2627629e+02 3.93352600e+02 7.54677100e-03 1.17141900e-01
       21 -1    0    0  503  502 +0.0000000000e+00 +0.0000000000e+00 +4.1465726792e+02 4.1465726792e+02 0.0000000000e+00 0.0000e+00 1.0000e+00
       21 -1    0    0  506  503 -0.0000000000e+00 -0.0000000000e+00 -1.3800965049e+03 1.3800965049e+03 0.0000000000e+00 0.0000e+00 1.0000e+00
        6  1    1    2  501    0 +3.8633710032e+00 +5.0255168337e+01 -1.6888532870e+02 2.4696510245e+02 1.7300000000e+02 0.0000e+00 -1.0000e+00
       -6  1    1    2    0  502 -3.4478486102e+02 -5.2151788215e+00 +1.4541911308e+02 4.1228572244e+02 1.7300000000e+02 0.0000e+00 1.0000e+00
       21  1    1    2  504  505 +3.5462474191e+02 -6.1587633118e+01 -2.6195327591e+02 4.4516430999e+02 0.0000000000e+00 0.0000e+00 1.0000e+00
       21  1    1    2  505  501 +2.3120401324e+01 +1.2901042493e+01 -3.3214631620e+01 4.2475894439e+01 0.0000000000e+00 0.0000e+00 1.0000e+00
       21  1    1    2  506  504 -3.6823653219e+01 +3.6466011098e+00 -6.4680511380e+02 6.4786274347e+02 0.0000000000e+00 0.0000e+00 1.0000e+00
<mgrwt>
<rscale>  5 0.32377535E+03</rscale>
<asrwt>0</asrwt>
<pdfrwt beam="1">  1       21 0.63793426E-01 0.39335263E+03</pdfrwt>
<pdfrwt beam="2">  1       21 0.21232254E+00 0.39335263E+03</pdfrwt>
<totfact> 0.21225107E+02</totfact>
</mgrwt>
</event>
<event>
 7      1 +1.2627629e+02 2.81145800e+02 7.54677100e-03 1.16278100e-01
       21 -1    0    0  504  502 +0.0000000000e+00 +0.0000000000e+00 +1.1065757065e+03 1.1065757065e+03 0.0000000000e+00 0.0000e+00 -1.0000e+00
       21 -1    0    0  501  503 -0.0000000000e+00 -0.0000000000e+00 -4.5250975808e+02 4.5250975808e+02 0.0000000000e+00 0.0000e+00 1.0000e+00
        6  1    1    2  501    0 +2.3500556570e+02 +2.6401691738e+01 -2.7738898094e+02 4.0348272824e+02 1.7300000000e+02 0.0000e+00 1.0000e+00
       -6  1    1    2    0  505 -1.7327020954e+02 -5.4721995140e+01 +9.3565990782e+01 2.6776978339e+02 1.7300000000e+02 0.0000e+00 -1.0000e+00
       21  1    1    2  504  503 -5.7180663964e+01 +5.2994357725e+01 +6.6398861000e+01 1.0240526854e+02 0.0000000000e+00 0.0000e+00 -1.0000e+00
       21  1    1    2  505  506 +2.0773553407e+01 -1.4165495738e+01 +1.6800342447e+01 3.0239928852e+01 0.0000000000e+00 0.0000e+00 1.0000e+00
       21  1    1    2  506  502 -2.5328245603e+01 -1.0508558586e+01 +7.5468973517e+02 7.5518775560e+02 0.0000000000e+00 0.0000e+00 -1.0000e+00
<mgrwt>
<rscale>  5 0.28114583E+03</rscale>
<asrwt>0</asrwt>
<pdfrwt beam="1">  1       21 0.17024242E+00 0.28114583E+03</pdfrwt>
<pdfrwt beam="2">  1       21 0.69616886E-01 0.28114583E+03</pdfrwt>
<totfact> 0.36473597E+02</totfact>
</mgrwt>
</event>
<event>
 7      1 +1.2627629e+02 1.85795900e+02 7.54677100e-03 1.09006200e-01
       21 -1    0    0  504  502 +0.0000000000e+00 +0.0000000000e+00 +2.0000052399e+03 2.0000052399e+03 0.0000000000e+00 0.0000e+00 1.0000e+00
       21 -1    0    0  501  503 -0.0000000000e+00 -0.0000000000e+00 -5.5890538075e+02 5.5890538075e+02 0.0000000000e+00 0.0000e+00 1.0000e+00
        6  1    1    2  501    0 -1.6184125107e+02 +2.5983298150e+00 -2.3554188381e+02 3.3407831551e+02 1.7300000000e+02 0.0000e+00 -1.0000e+00
       -6  1    1    2    0  506 -4.8264919914e+00 -5.1872947445e+01 -2.3471579891e+02 2.9620027677e+02 1.7300000000e+02 0.0000e+00 1.0000e+00
       21  1    1    2  504  505 +4.0268999634e+01 +9.7023809337e+00 +2.9482585276e+02 2.9772136635e+02 0.0000000000e+00 0.0000e+00 1.0000e+00
       21  1    1    2  505  503 +1.2325050334e+02 -3.3238927454e-02 +5.5005762474e+02 5.6369679635e+02 0.0000000000e+00 0.0000e+00 1.0000e+00
       21  1    1    2  506  502 +3.1482400836e+00 +3.9605475624e+01 +1.0664740644e+03 1.0672138657e+03 0.0000000000e+00 0.0000e+00 1.0000e+00
<mgrwt>
<rscale>  5 0.18579588E+03</rscale>
<asrwt>0</asrwt>
<pdfrwt beam="1">  1       21 0.30769311E+00 0.18579588E+03</pdfrwt>
<pdfrwt beam="2">  1       21 0.85985444E-01 0.18579588E+03</pdfrwt>
<totfact> 0.36435322E+01</totfact>
</mgrwt>
</event>
<event>
 7      1 +1.2627629e+02 1.85841400e+02 7.54677100e-03 1.07499700e-01
       21 -1    0    0  505  502 +0.0000000000e+00 +0.0000000000e+00 +8.5287651641e+02 8.5287651641e+02 0.0000000000e+00 0.0000e+00 1.0000e+00
       21 -1    0    0  501  503 -0.0000000000e+00 -0.0000000000e+00 -4.9573594172e+02 4.9573594172e+02 0.0000000000e+00 0.0000e+00 -1.0000e+00
        6  1    1    2  501    0 +4.5150102415e+01 -1.2600210111e+02 -1.2007951974e+02 2.4952585496e+02 1.7300000000e+02 0.0000e+00 1.0000e+00
       -6  1    1    2    0  506 -6.6129914026e+01 -1.5302531717e+01 -2.1540554154e+02 2.8449232034e+02 1.7300000000e+02 0.0000e+00 -1.0000e+00
       21  1    1    2  504  503 -8.4489036621e+00 +6.0248518699e+01 -9.8046962429e+00 6.1623048017e+01 0.0000000000e+00 0.0000e+00 -1.0000e+00
       21  1    1    2  505  504 +1.0854662267e+01 +6.9753891981e+01 +2.4547202582e+01 7.4739509592e+01 0.0000000000e+00 0.0000e+00 -1.0000e+00
       21  1    1    2  506  502 +1.8574053006e+01 +1.1302222144e+01 +6.7788312963e+02 6.7823172523e+02 0.0000000000e+00 0.0000e+00 1.0000e+00
<mgrwt>
<rscale>  5 0.18584139E+03</rscale>
<asrwt>0</asrwt>
<pdfrwt beam="1">  1       21 0.13121177E+00 0.18584139E+03</pdfrwt>
<pdfrwt beam="2">  1       21 0.76267068E-01 0.18584139E+03</pdfrwt>
<totfact> 0.65154690E+02</totfact>
</mgrwt>
</event>
<event>
 7      1 +1.2627629e+02 1.88364100e+02 7.54677100e-03 1.16537000e-01
       21 -1    0    0  503  502 +0.0000000000e+00 +0.0000000000e+00 +1.8442826594e+02 1.8442826594e+02 0.0000000000e+00 0.0000e+00 1.0000e+00
       21 -1    0    0  505  503 -0.0000000000e+00 -0.0000000000e+00 -1.8100212735e+03 1.8100212735e+03 0.0000000000e+00 0.0000e+00 1.0000e+00
        6  1    1    2  501    0 -1.3250824978e+02 +3.5194099316e+01 -8.0272993417e+02 8.3252712154e+02 1.7300000000e+02 0.0000e+00 1.0000e+00
       -6  1    1    2    0  504 -1.9917697016e+01 -9.0036474693e+01 -2.7980526350e+02 3.4164786976e+02 1.7300000000e+02 0.0000e+00 -1.0000e+00
       21  1    1    2  504  502 +1.0679183655e+02 +9.2564741880e+01 +9.0096123777e+01 1.6760083327e+02 0.0000000000e+00 0.0000e+00 1.0000e+00
       21  1    1    2  505  506 -3.1742621384e+01 -1.2117077252e+01 -4.6047270457e+02 4.6172451660e+02 0.0000000000e+00 0.0000e+00 -1.0000e+00
       21  1    1    2  506  501 +7.7376731622e+01 -2.5605289250e+01 -1.7268122906e+02 1.9094919823e+02 0.0000000000e+00 0.0000e+00 1.0000e+00
<mgrwt>
<rscale>  5 0.18836409E+03</rscale>
<asrwt>0</asrwt>
<pdfrwt beam="1">  1       21 0.28373580E-01 0.18836409E+03</pdfrwt>
<pdfrwt beam="2">  1       21 0.27846481E+00 0.18836409E+03</pdfrwt>
<totfact> 0.54259621E+02</totfact>
</mgrwt>
</event>
<event>
 7      1 +1.2627629e+02 1.87203600e+02 7.54677100e-03 1.05671900e-01
       21 -1    0    0  504  502 +0.0000000000e+00 +0.0000000000e+00 +4.5608624035e+02 4.5608624035e+02 0.0000000000e+00 0.0000e+00 1.0000e+00
       21 -1    0    0  506  503 -0.0000000000e+00 -0.0000000000e+00 -3.5807486169e+02 3.5807486169e+02 0.0000000000e+00 0.0000e+00 1.0000e+00
        6  1    1    2  501    0 -2.4630602708e+01 +4.3368609394e+00 -1.3181398308e+02 2.1892784448e+02 1.7300000000e+02 0.0000e+00 1.0000e+00
       -6  1    1    2    0  503 -8.8255527576e+01 -2.0648568074e+01 +9.9382140851e+01 2.1913742590e+02 1.7300000000e+02 0.0000e+00 1.0000e+00
       21  1    1    2  504  501 -3.9719524606e+01 +5.3464103878e+01 +1.8840225806e+02 1.9982858124e+02 0.0000000000e+00 0.0000e+00 1.0000e+00
       21  1    1    2  505  502 +3.9562365737e+01 -1.5615099584e+00 +8.3506192057e+00 4.0464205629e+01 0.0000000000e+00 0.0000e+00 1.0000e+00
       21  1    1    2  506  505 +1.1304328915e+02 -3.5590886785e+01 -6.6309656380e+01 1.3580304479e+02 0.0000000000e+00 0.0000e+00 1.0000e+00
<mgrwt>
<rscale>  5 0.18720362E+03</rscale>
<asrwt>0</asrwt>
<pdfrwt beam="1">  1       21 0.70167114E-01 0.18720362E+03</pdfrwt>
<pdfrwt beam="2">  1       21 0.55088440E-01 0.18720362E+03</pdfrwt>
<totfact> 0.57536787E+03</totfact>
</mgrwt>
</event>
<event>
 7      1 +1.2627629e+02 3.29832300e+02 7.54677100e-03 1.12821900e-01
       21 -1    0    0  501  502 +0.0000000000e+00 +0.0000000000e+00 +1.7154837474e+02 1.7154837474e+02 0.0000000000e+00 0.0000e+00 1.0000e+00
       21 -1    0    0  504  503 -0.0000000000e+00 -0.0000000000e+00 -1.5883799240e+03 1.5883799240e+03 0.0000000000e+00 0.0000e+00 1.0000e+00
        6  1    1    2  501    0 -1.8082588137e+02 -2.7962664822e+02 -2.3271311903e+02 4.4155798887e+02 1.7300000000e+02 0.0000e+00 1.0000e+00
       -6  1    1    2    0  505 +1.2027022628e+02 +2.0650582611e+02 -3.7704217947e+02 4.7874772965e+02 1.7300000000e+02 0.0000e+00 1.0000e+00
       21  1    1    2  504  506 +2.6519375677e+01 +9.5229429186e+00 -2.0064835736e+02 2.0261719334e+02 0.0000000000e+00 0.0000e+00 1.0000e+00
       21  1    1    2  505  503 -5.9241938172e+00 +6.7774755141e+01 -6.5014156377e+01 9.4102890690e+01 0.0000000000e+00 0.0000e+00 -1.0000e+00
       21  1    1    2  506  502 +3.9960473232e+01 -4.1768759497e+00 -5.4141373707e+02 5.4290249622e+02 0.0000000000e+00 0.0000e+00 1.0000e+00
<mgrwt>
<rscale>  5 0.32983232E+03</rscale>
<asrwt>0</asrwt>
<pdfrwt beam="1">  1       21 0.26392058E-01 0.32983232E+03</pdfrwt>
<pdfrwt beam="2">  1       21 0.24436614E+00 0.32983232E+03</pdfrwt>
<totfact> 0.86253376E+02</totfact>
</mgrwt>
</event>
<event>
 7      1 +1.2627629e+02 1.75854000e+02 7.54677100e-03 1.06794800e-01
       21 -1    0    0  504  502 +0.0000000000e+00 +0.0000000000e+00 +2.9627040161e+02 2.9627040161e+02 0.0000000000e+00 0.0000e+00 -1.0000e+00
       21 -1    0    0  506  503 -0.0000000000e+00 -0.0000000000e+00 -9.0513295538e+02 9.0513295538e+02 0.0000000000e+00 0.0000e+00 -1.0000e+00
        6  1    1    2  501    0 +5.5280789329e+01 +3.2611042421e+01 -1.4640906205e+02 2.3555054491e+02 1.7300000000e+02 0.0000e+00 -1.0000e+00
       -6  1    1    2    0  503 +3.8791818250e+01 -2.3428154294e+01 -2.4044708396e+02 2.9966228284e+02 1.7300000000e+02 0.0000e+00 -1.0000e+00
       21  1    1    2  504  505 -1.0098078117e+02 +4.0752765002e+01 -2.6872803894e+02 2.8995286675e+02 0.0000000000e+00 0.0000e+00 1.0000e+00
       21  1    1    2  505  501 +1.4361423205e+01 -2.2213755326e+01 +2.0939080379e+02 2.1105499311e+02 0.0000000000e+00 0.0000e+00 -1.0000e+00
       21  1    1    2  506  502 -7.4532496096e+00 -2.7721897802e+01 -1.6266917262e+02 1.6518266939e+02 0.0000000000e+00 0.0000e+00 -1.0000e+00
<mgrwt>
<rscale>  5 0.17585399E+03</rscale>
<asrwt>0</asrwt>
<pdfrwt beam="1">  1       21 0.45580062E-01 0.17585399E+03</pdfrwt>
<pdfrwt beam="2">  1       21 0.13925122E+00 0.17585399E+03</pdfrwt>
<totfact> 0.17030233E+03</totfact>
</mgrwt>
</event>
<event>
 7      1 +1.2627629e+02 2.57281800e+02 7.54677100e-03 1.17191400e-01
       21 -1    0    0  505  502 +0.0000000000e+00 +0.0000000000e+00 +1.0457314465e+03 1.0457314465e+03 0.0000000000e+00 0.0000e+00 1.0000e+00
       21 -1    0    0  501  503 -0.0000000000e+00 -0.0000000000e+00 -1.4866058292e+03 1.4866058292e+03 0.0000000000e+00 0.0000e+00 1.0000e+00
        6  1    1    2  501    0 -7.7014653018e+01 +7.4548476383e+01 -1.1961256569e+02 2.3606121660e+02 1.7300000000e+02 0.0000e+00 -1.0000e+00
       -6  1    1    2    0  502 -2.1336556423e+01 +1.1734391270e+02 -1.1049242064e+03 1.1247272311e+03 1.7300000000e+02 0.0000e+00 1.0000e+00
       21  1    1    2  504  506 +7.6302549873e+01 +1.3467008512e+02 +3.6251255239e+02 3.9417440503e+02 0.0000000000e+00 0.0000e+00 1.0000e+00
       21  1    1    2  505  504 +6.4868258834e+01 -2.7830449481e+02 +5.5753276548e+02 6.2650145045e+02 0.0000000000e+00 0.0000e+00 1.0000e+00
       21  1    1    2  506  503 -4.2819599266e+01 -4.8257979405e+01 -1.3638292843e+02 1.5087297248e+02 0.0000000000e+00 0.0000e+00 1.0000e+00
<mgrwt>
<rscale>  5 0.24114808E+03</rscale>
<asrwt>0</asrwt>
<pdfrwt beam="1">  1       21 0.16088176E+00 0.25728184E+03</pdfrwt>
<pdfrwt beam="2">  1       21 0.22870859E+00 0.25728184E+03</pdfrwt>
<totfact> 0.20008187E+01</totfact>
</mgrwt>
</event>
<event>
 7      1 +1.2627629e+02 4.34871300e+02 7.54677100e-03 1.15474700e-01
       21 -1    0    0  505  502 +0.0000000000e+00 +0.0000000000e+00 +3.2678866025e+02 3.2678866025e+02 0.0000000000e+00 0.0000e+00 1.0000e+00
       21 -1    0    0  504  503 -0.0000000000e+00 -0.0000000000e+00 -4.2708879420e+02 4.2708879420e+02 0.0000000000e+00 0.0000e+00 1.0000e+00
        6  1    1    2  501    0 +1.4981747925e+02 +3.8707587354e+01 -8.5550848736e+01 2.4736916164e+02 1.7300000000e+02 0.0000e+00 1.0000e+00
       -6  1    1    2    0  503 +8.0413932546e+01 +7.0689304691e+01 -8.4243000673e+01 2.2020277361e+02 1.7300000000e+02 0.0000e+00 1.0000e+00
       21  1    1    2  504  506 +5.6986270353e+00 -1.9331109090e+01 +1.2943297997e+01 2.3951932944e+01 0.0000000000e+00 0.0000e+00 -1.0000e+00
       21  1    1    2  505  501 -2.0887432329e+02 -8.9376880109e+01 +4.0166846825e+01 2.3071646064e+02 0.0000000000e+00 0.0000e+00 1.0000e+00
       21  1    1    2  506  502 -2.7055715545e+01 -6.8890284604e-01 +1.6383570636e+01 3.1637125621e+01 0.0000000000e+00 0.0000e+00 -1.0000e+00
<mgrwt>
<rscale>  5 0.43487125E+03</rscale>
<asrwt>0</asrwt>
<pdfrwt beam="1">  1       21 0.50275178E-01 0.43487125E+03</pdfrwt>
<pdfrwt beam="2">  1       21 0.65705968E-01 0.43487125E+03</pdfrwt>
<totfact> 0.71418591E+03</totfact>
</mgrwt>
</event>
<event>
 7      1 +1.2627629e+02 3.16880800e+02 7.54677100e-03 9.91481900e-02
       21 -1    0    0  501  502 +0.0000000000e+00 +0.0000000000e+00 +5.7488186225e+02 5.7488186225e+02 0.0000000000e+00 0.0000e+00 1.0000e+00
       21 -1    0    0  505  503 -0.0000000000e+00 -0.0000000000e+00 -8.4420078864e+02 8.4420078864e+02 0.0000000000e+00 0.0000e+00 -1.0000e+00
        6  1    1    2  501    0 -3.7901088590e+01 -2.4929472650e+02 +2.9998069766e+02 4.2837106829e+02 1.7300000000e+02 0.0000e+00 1.0000e+00
       -6  1    1    2    0  506 +1.2006105871e+02 +2.7918529692e+02 +4.5943068504e+01 3.5270221629e+02 1.7300000000e+02 0.0000e+00 -1.0000e+00
       21  1    1    2  504  502 -3.1158087523e+01 -1.4642969982e+01 -5.2469626196e+01 6.2755913356e+01 0.0000000000e+00 0.0000e+00 1.0000e+00
       21  1    1    2  505  504 -4.4204022288e+01 -4.8290319137e+01 -1.9010905407e+02 2.0106566825e+02 0.0000000000e+00 0.0000e+00 -1.0000e+00
       21  1    1    2  506  503 -6.7978603042e+00 +3.3042718699e+01 -3.7266401229e+02 3.7418778470e+02 0.0000000000e+00 0.0000e+00 -1.0000e+00
<mgrwt>
<rscale>  5 0.31688082E+03</rscale>
<asrwt>0</asrwt>
<pdfrwt beam="1">  1       21 0.88443364E-01 0.31688082E+03</pdfrwt>
<pdfrwt beam="2">  1       21 0.12987704E+00 0.31688082E+03</pdfrwt>
<totfact> 0.42457812E+02</totfact>
</mgrwt>
</event>
<event>
 7      1 +1.2627629e+02 1.81807600e+02 7.54677100e-03 1.06794800e-01
       21 -1    0    0  504  502 +0.0000000000e+00 +0.0000000000e+00 +2.8164397132e+02 2.8164397132e+02 0.0000000000e+00 0.0000e+00 -1.0000e+00
       21 -1    0    0  506  503 -0.0000000000e+00 -0.0000000000e+00 -8.3214496837e+02 8.3214496837e+02 0.0000000000e+00 0.0000e+00 1.0000e+00
        6  1    1    2  501    0 +9.9774140051e+00 +6.0895584442e+01 -6.2879346324e+02 6.5507101936e+02 1.7300000000e+02 0.0000e+00 1.0000e+00
       -6  1    1    2    0  503 -8.8960033237e+01 -5.1849240784e+01 +3.2943023237e+01 2.0400116192e+02 1.7300000000e+02 0.0000e+00 -1.0000e+00
       21  1    1    2  504  505 +3.1313948744e+01 -5.8622644105e+01 +8.5033405316e+01 1.0792524175e+02 0.0000000000e+00 0.0000e+00 -1.0000e+00
       21  1    1    2  505  501 +2.3123089847e+01 +7.5296651969e+01 +1.6334739451e+01 8.0443065547e+01 0.0000000000e+00 0.0000e+00 -1.0000e+00
       21  1    1    2  506  502 +2.4545580641e+01 -2.5720351522e+01 -5.6018701815e+01 6.6348451108e+01 0.0000000000e+00 0.0000e+00 -1.0000e+00
<mgrwt>
<rscale>  5 0.18180764E+03</rscale>
<asrwt>0</asrwt>
<pdfrwt beam="1">  1       21 0.43329843E-01 0.18180764E+03</pdfrwt>
<pdfrwt beam="2">  1       21 0.12802230E+00 0.18180764E+03</pdfrwt>
<totfact> 0.23238007E+03</totfact>
</mgrwt>
</event>
<event>
 7      1 +1.2627629e+02 1.76363300e+02 7.54677100e-03 1.06794800e-01
       21 -1    0    0  504  502 +0.0000000000e+00 +0.0000000000e+00 +6.5408869192e+02 6.5408869192e+02 0.0000000000e+00 0.0000e+00 -1.0000e+00
       21 -1    0    0  506  503 -0.0000000000e+00 -0.0000000000e+00 -8.6924593600e+02 8.6924593600e+02 0.0000000000e+00 0.0000e+00 1.0000e+00
        6  1    1    2  501    0 -4.2443912980e+00 +3.3349645703e+01 +3.6557699655e+01 1.7998799718e+02 1.7300000000e+02 0.0000e+00 -1.0000e+00
       -6  1    1    2    0  503 -7.2529431990e+00 +9.6717791362e+01 +8.1592501076e+01 2.1446042195e+02 1.7300000000e+02 0.0000e+00 -1.0000e+00
       21  1    1    2  504  505 +4.7503547322e+01 -8.0316199816e+01 -3.2763969749e+01 9.8897708137e+01 0.0000000000e+00 0.0000e+00 1.0000e+00
       21  1    1    2  505  501 -2.4352948976e+01 +1.1707301839e+00 +3.6328780325e+02 3.6410501881e+02 0.0000000000e+00 0.0000e+00 -1.0000e+00
       21  1    1    2  506  502 -1.1653263849e+01 -5.0921967433e+01 -6.6383127831e+02 6.6588348184e+02 0.0000000000e+00 0.0000e+00 1.0000e+00
<mgrwt>
<rscale>  5 0.17636326E+03</rscale>
<asrwt>0</asrwt>
<pdfrwt beam="1">  1       21 0.10062903E+00 0.17636326E+03</pdfrwt>
<pdfrwt beam="2">  1       21 0.13373014E+00 0.17636326E+03</pdfrwt>
<totfact> 0.33210199E+02</totfact>
</mgrwt>
</event>
<event>
 7      1 +1.2627629e+02 1.91189400e+02 7.54677100e-03 1.03887100e-01
       21 -1    0    0  501  502 +0.0000000000e+00 +0.0000000000e+00 +3.2871261982e+02 3.2871261982e+02 0.0000000000e+00 0.0000e+00 -1.0000e+00
       21 -1    0    0  506  503 -0.0000000000e+00 -0.0000000000e+00 -1.6906926088e+03 1.6906926088e+03 0.0000000000e+00 0.0000e+00 1.0000e+00
        6  1    1    2  501    0 +5.2737413424e+00 -1.1871094350e+02 +1.2932534332e+02 2.4652412636e+02 1.7300000000e+02 0.0000e+00 -1.0000e+00
       -6  1    1    2    0  505 -9.7340833932e+01 +2.1335827310e+00 +5.9465005371e+01 2.0723145753e+02 1.7300000000e+02 0.0000e+00 1.0000e+00
       21  1    1    2  504  503 +1.0698639131e+02 +8.1195584173e+01 -1.2254040097e+03 1.2327423890e+03 0.0000000000e+00 0.0000e+00 1.0000e+00
       21  1    1    2  505  504 +7.9825032020e-01 +4.8797697887e+01 -2.5219788110e+02 2.5687667032e+02 0.0000000000e+00 0.0000e+00 -1.0000e+00
       21  1    1    2  506  502 -1.5717549037e+01 -1.3415921293e+01 -7.3168446889e+01 7.6030585372e+01 0.0000000000e+00 0.0000e+00 1.0000e+00
<mgrwt>
<rscale>  5 0.19118937E+03</rscale>
<asrwt>0</asrwt>
<pdfrwt beam="1">  1       21 0.50571172E-01 0.19118937E+03</pdfrwt>
<pdfrwt beam="2">  1       21 0.26010656E+00 0.19118937E+03</pdfrwt>
<totfact> 0.21639074E+02</totfact>
</mgrwt>
</event>
<event>
 7      1 +1.2627629e+02 3.87483300e+02 7.54677100e-03 1.06502400e-01
       21 -1    0    0  504  502 +0.0000000000e+00 +0.0000000000e+00 +1.7750504391e+03 1.7750504391e+03 0.0000000000e+00 0.0000e+00 1.0000e+00
       21 -1    0    0  502  503 -0.0000000000e+00 -0.0000000000e+00 -3.5035578744e+02 3.5035578744e+02 0.0000000000e+00 0.0000e+00 1.0000e+00
        6  1    1    2  501    0 -3.3559029065e+02 +3.2596564241e+02 +2.4918254421e+02 5.5757993468e+02 1.7300000000e+02 0.0000e+00 1.0000e+00
       -6  1    1    2    0  506 +2.1447548146e+02 -1.5825649710e+02 +3.1907726213e+02 4.5031561180e+02 1.7300000000e+02 0.0000e+00 1.0000e+00
       21  1    1    2  504  501 +4.0636239645e+01 -5.5517490775e+01 +9.3000466528e+02 9.3254607028e+02 0.0000000000e+00 0.0000e+00 1.0000e+00
       21  1    1    2  505  503 +7.3740248387e+01 -7.3125886021e+01 -9.4258068360e+01 1.4024836145e+02 0.0000000000e+00 0.0000e+00 1.0000e+00
       21  1    1    2  506  505 +6.7383211620e+00 -3.9065768523e+01 +2.0688248402e+01 4.4716248325e+01 0.0000000000e+00 0.0000e+00 1.0000e+00
<mgrwt>
<rscale>  5 0.38748333E+03</rscale>
<asrwt>0</asrwt>
<pdfrwt beam="1">  1       21 0.27308468E+00 0.38748333E+03</pdfrwt>
<pdfrwt beam="2">  1       21 0.53900891E-01 0.38748333E+03</pdfrwt>
<totfact> 0.12962615E+02</totfact>
</mgrwt>
</event>
<event>
 7      1 +1.2627629e+02 2.77410600e+02 7.54677100e-03 1.06502400e-01
       21 -1    0    0  501  502 +0.0000000000e+00 +0.0000000000e+00 +5.1937032729e+02 5.1937032729e+02 0.0000000000e+00 0.0000e+00 -1.0000e+00
       21 -1    0    0  504  503 -0.0000000000e+00 -0.0000000000e+00 -9.9839141564e+02 9.9839141564e+02 0.0000000000e+00 0.0000e+00 1.0000e+00
        6  1    1    2  501    0 -2.3384559066e+02 +6.0956384131e+01 +9.4923243813e+00 2.9735256054e+02 1.7300000000e+02 0.0000e+00 1.0000e+00
       -6  1    1    2    0  505 +8.1134998851e+01 -2.1812011370e+02 +2.4227999543e+02 3.7787282017e+02 1.7300000000e+02 0.0000e+00 -1.0000e+00
       21  1    1    2  504  502 -9.1586399139e+00 -2.9940046806e+01 +2.0844953901e+01 3.7613816490e+01 0.0000000000e+00 0.0000e+00 1.0000e+00
       21  1    1    2  505  506 +1.6518350612e+02 +2.0752174433e+02 -6.6721258664e+02 7.1799965239e+02 0.0000000000e+00 0.0000e+00 1.0000e+00
       21  1    1    2  506  503 -3.3142743983e+00 -2.0417967955e+01 -8.4425775429e+01 8.6922893342e+01 0.0000000000e+00 0.0000e+00 1.0000e+00
<mgrwt>
<rscale>  5 0.27741057E+03</rscale>
<asrwt>0</asrwt>
<pdfrwt beam="1">  1       21 0.79903128E-01 0.27741057E+03</pdfrwt>
<pdfrwt beam="2">  1       21 0.15359868E+00 0.27741057E+03</pdfrwt>
<totfact> 0.35582884E+02</totfact>
</mgrwt>
</event>
<event>
 7      1 +1.2627629e+02 3.02845100e+02 7.54677100e-03 1.13665400e-01
       21 -1    0    0  504  502 +0.0000000000e+00 +0.0000000000e+00 +4.4352495250e+02 4.4352495250e+02 0.0000000000e+00 0.0000e+00 -1.0000e+00
       21 -1    0    0  502  503 -0.0000000000e+00 -0.0000000000e+00 -3.6404339425e+02 3.6404339425e+02 0.0000000000e+00 0.0000e+00 -1.0000e+00
        6  1    1    2  501    0 +7.9017619245e+01 +2.7082911347e+02 -7.7780534209e+01 3.3995735668e+02 1.7300000000e+02 0.0000e+00 -1.0000e+00
       -6  1    1    2    0  503 -6.7069600167e+01 -2.3475150982e+02 +1.3262691193e+02 3.2730032141e+02 1.7300000000e+02 0.0000e+00 -1.0000e+00
       21  1    1    2  504  505 +2.5611158340e+01 +1.3098828119e+01 +1.8444979759e+01 3.4172035466e+01 0.0000000000e+00 0.0000e+00 -1.0000e+00
       21  1    1    2  505  506 +2.3988484594e+01 -1.6720844904e-01 +1.2789975617e+01 2.7185636430e+01 0.0000000000e+00 0.0000e+00 -1.0000e+00
       21  1    1    2  506  501 -6.1547662012e+01 -4.9009223326e+01 -6.5997748558e+00 7.8952996766e+01 0.0000000000e+00 0.0000e+00 -1.0000e+00
<mgrwt>
<rscale>  5 0.30284515E+03</rscale>
<asrwt>0</asrwt>
<pdfrwt beam="1">  1       21 0.68234608E-01 0.30284515E+03</pdfrwt>
<pdfrwt beam="2">  1       21 0.56006676E-01 0.30284515E+03</pdfrwt>
<totfact> 0.54947384E+03</totfact>
</mgrwt>
</event>
<event>
 7      1 +1.2627629e+02 1.87172400e+02 7.54677100e-03 1.11320700e-01
       21 -1    0    0  505  502 +0.0000000000e+00 +0.0000000000e+00 +8.9475363923e+02 8.9475363923e+02 0.0000000000e+00 0.0000e+00 -1.0000e+00
       21 -1    0    0  504  503 -0.0000000000e+00 -0.0000000000e+00 -1.7948257892e+02 1.7948257892e+02 0.0000000000e+00 0.0000e+00 1.0000e+00
        6  1    1    2  501    0 +4.4720137187e+01 +6.8717207244e+01 +4.2209422815e+01 1.9604229293e+02 1.7300000000e+02 0.0000e+00 1.0000e+00
       -6  1    1    2    0  502 -5.1137672766e+01 -8.0072813227e+01 +3.1834239531e+02 3.7456320915e+02 1.7300000000e+02 0.0000e+00 1.0000e+00
       21  1    1    2  504  501 -3.1153839200e+01 -1.4818254347e+01 -6.8843631849e+01 7.7003818119e+01 0.0000000000e+00 0.0000e+00 1.0000e+00
       21  1    1    2  505  506 +1.7253293930e+01 +1.9049880362e+01 +3.0836310976e+02 3.0943235376e+02 0.0000000000e+00 0.0000e+00 -1.0000e+00
       21  1    1    2  506  503 +2.0318080848e+01 +7.1239799681e+00 +1.1519976428e+02 1.1719454420e+02 0.0000000000e+00 0.0000e+00 -1.0000e+00
<mgrwt>
<rscale>  5 0.18717237E+03</rscale>
<asrwt>0</asrwt>
<pdfrwt beam="1">  1       21 0.13765440E+00 0.18717237E+03</pdfrwt>
<pdfrwt beam="2">  1       21 0.27612705E-01 0.18717237E+03</pdfrwt>
<totfact> 0.46996251E+03</totfact>
</mgrwt>
</event>
<event>
 7      1 +1.2627629e+02 2.14041700e+02 7.54677100e-03 1.13220500e-01
       21 -1    0    0  504  502 +0.0000000000e+00 +0.0000000000e+00 +3.7775501979e+02 3.7775501979e+02 0.0000000000e+00 0.0000e+00 1.0000e+00
       21 -1    0    0  505  503 -0.0000000000e+00 -0.0000000000e+00 -5.5851083475e+02 5.5851083475e+02 0.0000000000e+00 0.0000e+00 1.0000e+00
        6  1    1    2  501    0 +1.0945976758e+02 +8.0002120788e+01 -4.1903422401e+01 2.2375584207e+02 1.7300000000e+02 0.0000e+00 1.0000e+00
       -6  1    1    2    0  502 -1.1627982955e+02 -4.3896952917e+01 -3.8912633445e+02 4.4361722847e+02 1.7300000000e+02 0.0000e+00 1.0000e+00
       21  1    1    2  504  506 -2.4423194634e+01 -1.0646427619e+01 +1.4406582405e+02 1.4650870457e+02 0.0000000000e+00 0.0000e+00 1.0000e+00
       21  1    1    2  505  501 +2.2088054162e+00 -2.0889183680e+01 +1.3120644539e+01 2.4766673764e+01 0.0000000000e+00 0.0000e+00 1.0000e+00
       21  1    1    2  506  503 +2.9034451183e+01 -4.5695565716e+00 +9.3087473301e+01 9.7617405662e+01 0.0000000000e+00 0.0000e+00 1.0000e+00
<mgrwt>
<rscale>  5 0.21404171E+03</rscale>
<asrwt>0</asrwt>
<pdfrwt beam="1">  1       21 0.58116157E-01 0.21404171E+03</pdfrwt>
<pdfrwt beam="2">  1       21 0.85924744E-01 0.21404171E+03</pdfrwt>
<totfact> 0.31865941E+03</totfact>
</mgrwt>
</event>
<event>
 7      1 +1.2627629e+02 1.85563200e+02 7.54677100e-03 1.06794800e-01
       21 -1    0    0  504  502 +0.0000000000e+00 +0.0000000000e+00 +5.7214780786e+02 5.7214780786e+02 0.0000000000e+00 0.0000e+00 1.0000e+00
       21 -1    0    0  506  503 -0.0000000000e+00 -0.0000000000e+00 -1.4113498127e+03 1.4113498127e+03 0.0000000000e+00 0.0000e+00 -1.0000e+00
        6  1    1    2  501    0 -7.1714839367e-01 -8.2802527222e+01 -1.0775658350e+03 1.0945016682e+03 1.7300000000e+02 0.0000e+00 -1.0000e+00
       -6  1    1    2    0  503 -4.2856858950e+01 -2.8388735302e+01 -1.0962800406e+02 2.1116327788e+02 1.7300000000e+02 0.0000e+00 1.0000e+00
       21  1    1    2  504  505 +2.9963060229e+00 +4.5050430646e+01 +7.1336385536e+01 8.4423924645e+01 0.0000000000e+00 0.0000e+00 1.0000e+00
       21  1    1    2  505  501 +1.8311504671e+01 +6.3023540670e+01 +4.3174157965e+02 4.3670135045e+02 0.0000000000e+00 0.0000e+00 1.0000e+00
       21  1    1    2  506  502 +2.2266196649e+01 +3.1172912076e+00 -1.5508613093e+02 1.5670739939e+02 0.0000000000e+00 0.0000e+00 -1.0000e+00
<mgrwt>
<rscale>  5 0.18556318E+03</rscale>
<asrwt>0</asrwt>
<pdfrwt beam="1">  1       21 0.88022740E-01 0.18556318E+03</pdfrwt>
<pdfrwt beam="2">  1       21 0.21713074E+00 0.18556318E+03</pdfrwt>
<totfact> 0.11709670E+02</totfact>
</mgrwt>
</event>
<event>
 7      1 +1.2627629e+02 3.51685300e+02 7.54677100e-03 1.12385500e-01
       21 -1    0    0  506  502 +0.0000000000e+00 +0.0000000000e+00 +5.2464605329e+02 5.2464605329e+02 0.0000000000e+00 0.0000e+00 1.0000e+00
       21 -1    0    0  502  503 -0.0000000000e+00 -0.0000000000e+00 -8.8283428672e+02 8.8283428672e+02 0.0000000000e+00 0.0000e+00 -1.0000e+00
        6  1    1    2  501    0 -8.0995852247e+01 -2.7734510816e+02 -5.2732501903e+01 3.4086706186e+02 1.7300000000e+02 0.0000e+00 -1.0000e+00
       -6  1    1    2    0  504 +3.3319404754e+01 +3.3512463658e+02 -7.9089772623e+01 3.8678533698e+02 1.7300000000e+02 0.0000e+00 -1.0000e+00
       21  1    1    2  504  503 +8.2952395055e+01 -4.3047629633e+01 -2.5348562423e+02 2.7016506057e+02 0.0000000000e+00 0.0000e+00 -1.0000e+00
       21  1    1    2  505  501 -5.9665944709e+00 -5.1734861716e+01 -1.8508462278e+02 1.9227171855e+02 0.0000000000e+00 0.0000e+00 -1.0000e+00
       21  1    1    2  506  505 -2.9309353091e+01 +3.7002962933e+01 +2.1220428811e+02 2.1739116204e+02 0.0000000000e+00 0.0000e+00 1.0000e+00
<mgrwt>
<rscale>  5 0.35168525E+03</rscale>
<asrwt>0</asrwt>
<pdfrwt beam="1">  1       21 0.80714778E-01 0.35168525E+03</pdfrwt>
<pdfrwt beam="2">  1       21 0.13582066E+00 0.35168525E+03</pdfrwt>
<totfact> 0.45718247E+02</totfact>
</mgrwt>
</event>
<event>
 7      1 +1.2627629e+02 1.93130200e+02 7.54677100e-03 1.12821900e-01
       21 -1    0    0  501  502 +0.0000000000e+00 +0.0000000000e+00 +4.1164246884e+02 4.1164246884e+02 0.0000000000e+00 0.0000e+00 1.0000e+00
       21 -1    0    0  504  503 -0.0000000000e+00 -0.0000000000e+00 -3.5423732424e+02 3.5423732424e+02 0.0000000000e+00 0.0000e+00 1.0000e+00
        6  1    1    2  501    0 +6.2085218098e+01 -5.7464948388e+01 +1.5908967869e+02 2.4979055320e+02 1.7300000000e+02 0.0000e+00 1.0000e+00
       -6  1    1    2    0  505 -1.1412648472e+02 +1.1084074454e+01 +3.4886500703e+01 2.1046087321e+02 1.7300000000e+02 0.0000e+00 -1.0000e+00
       21  1    1    2  504  506 +5.6680149581e+00 -2.7951765673e+01 -6.3067140166e+01 6.9216268077e+01 0.0000000000e+00 0.0000e+00 -1.0000e+00
       21  1    1    2  505  503 -3.4035835135e+00 +2.5483914440e+01 +7.1242765427e+01 7.5739988788e+01 0.0000000000e+00 0.0000e+00 -1.0000e+00
       21  1    1    2  506  502 +4.9776835176e+01 +4.8848725167e+01 -1.4474666006e+02 1.6067210981e+02 0.0000000000e+00 0.0000e+00 1.0000e+00
<mgrwt>
<rscale>  5 0.19313024E+03</rscale>
<asrwt>0</asrwt>
<pdfrwt beam="1">  1       21 0.63329611E-01 0.19313024E+03</pdfrwt>
<pdfrwt beam="2">  1       21 0.54498050E-01 0.19313024E+03</pdfrwt>
<totfact> 0.73324124E+03</totfact>
</mgrwt>
</event>
<event>
 7      1 +1.2627629e+02 2.71080500e+02 7.54677100e-03 1.16852600e-01
       21 -1    0    0  505  502 +0.0000000000e+00 +0.0000000000e+00 +3.2304365380e+03 3.2304365380e+03 0.0000000000e+00 0.0000e+00 1.0000e+00
       21 -1    0    0  504  503 -0.0000000000e+00 -0.0000000000e+00 -1.7372705096e+02 1.7372705096e+02 0.0000000000e+00 0.0000e+00 1.0000e+00
        6  1    1    2  501    0 -3.0905368153e+02 +2.3382762929e+02 +1.1353572799e+03 1.2120869158e+03 1.7300000000e+02 0.0000e+00 1.0000e+00
       -6  1    1    2    0  502 +1.0459334518e+02 -1.1180431356e+02 +1.8362782614e+03 1.8507530428e+03 1.7300000000e+02 0.0000e+00 1.0000e+00
       21  1    1    2  504  501 -1.3290106342e+01 +3.2158896181e+01 +3.7852727235e+00 3.5002140217e+01 0.0000000000e+00 0.0000e+00 1.0000e+00
       21  1    1    2  505  506 +1.1668771569e+01 -2.0190384925e+01 +5.4221899483e+01 5.9023946470e+01 0.0000000000e+00 0.0000e+00 1.0000e+00
       21  1    1    2  506  503 +2.0608167112e+02 -1.3399182700e+02 +2.7066773524e+01 2.4729754367e+02 0.0000000000e+00 0.0000e+00 1.0000e+00
<mgrwt>
<rscale>  5 0.27108052E+03</rscale>
<asrwt>0</asrwt>
<pdfrwt beam="1">  1       21 0.49699020E+00 0.27108052E+03</pdfrwt>
<pdfrwt beam="2">  1       21 0.26727241E-01 0.27108052E+03</pdfrwt>
<totfact> 0.23196029E+01</totfact>
</mgrwt>
</event>
<event>
 7      1 +1.2627629e+02 2.03608300e+02 7.54677100e-03 1.14101600e-01
       21 -1    0    0  501  502 +0.0000000000e+00 +0.0000000000e+00 +1.7422886711e+02 1.7422886711e+02 0.0000000000e+00 0.0000e+00 -1.0000e+00
       21 -1    0    0  505  503 -0.0000000000e+00 -0.0000000000e+00 -1.5237941826e+03 1.5237941826e+03 0.0000000000e+00 0.0000e+00 -1.0000e+00
        6  1    1    2  501    0 +8.9448238378e+00 +1.1707664102e+02 -2.9616472490e+02 3.6253205930e+02 1.7300000000e+02 0.0000e+00 -1.0000e+00
       -6  1    1    2    0  506 +6.3887660794e+01 +7.0102223220e+01 -1.2308591712e+02 2.3254052958e+02 1.7300000000e+02 0.0000e+00 -1.0000e+00
       21  1    1    2  504  502 +8.6782094767e+01 -5.7146103299e+01 +3.2283450147e+01 1.0880730788e+02 0.0000000000e+00 0.0000e+00 -1.0000e+00
       21  1    1    2  505  504 -1.6049532993e+01 +1.7375601949e+01 -2.5754575989e+01 3.4968517795e+01 0.0000000000e+00 0.0000e+00 1.0000e+00
       21  1    1    2  506  503 -1.4356504640e+02 -1.4740836289e+02 -9.3684354765e+02 9.5917463518e+02 0.0000000000e+00 0.0000e+00 -1.0000e+00
<mgrwt>
<rscale>  5 0.19741752E+03</rscale>
<asrwt>0</asrwt>
<pdfrwt beam="1">  1       21 0.26804442E-01 0.20360831E+03</pdfrwt>
<pdfrwt beam="2">  1       21 0.23442987E+00 0.20360831E+03</pdfrwt>
<totfact> 0.10762273E+03</totfact>
</mgrwt>
</event>
<event>
 7      1 +1.2627629e+02 5.51415000e+02 7.54677100e-03 1.15521100e-01
       21 -1    0    0  503  502 +0.0000000000e+00 +0.0000000000e+00 +1.1184965484e+03 1.1184965484e+03 0.0000000000e+00 0.0000e+00 1.0000e+00
       21 -1    0    0  504  503 -0.0000000000e+00 -0.0000000000e+00 -7.7099191258e+02 7.7099191258e+02 0.0000000000e+00 0.0000e+00 1.0000e+00
        6  1    1    2  501    0 +3.3078099448e+01 +2.3148489909e+02 -1.3190421672e+02 3.1938556880e+02 1.7300000000e+02 0.0000e+00 1.0000e+00
       -6  1    1    2    0  505 -3.8492925499e+01 +1.6733335152e+02 -8.0481733893e+01 2.5668748574e+02 1.7300000000e+02 0.0000e+00 1.0000e+00
       21  1    1    2  504  501 +5.3431032805e+02 -3.1173095549e+02 +1.8372829657e+02 6.4530597567e+02 0.0000000000e+00 0.0000e+00 1.0000e+00
       21  1    1    2  505  506 -3.9188170155e+02 -1.1857156671e+02 +3.0497075574e+02 5.1052683210e+02 0.0000000000e+00 0.0000e+00 1.0000e+00
       21  1    1    2  506  502 -1.3701380045e+02 +3.1484271591e+01 +7.1191534142e+01 1.5758259868e+02 0.0000000000e+00 0.0000e+00 1.0000e+00
<mgrwt>
<rscale>  5 0.54739060E+03</rscale>
<asrwt>0</asrwt>
<pdfrwt beam="1">  1       21 0.17207639E+00 0.55141504E+03</pdfrwt>
<pdfrwt beam="2">  1       21 0.11861414E+00 0.55141504E+03</pdfrwt>
<totfact> 0.84981922E+01</totfact>
</mgrwt>
</event>
<event>
 7      1 +1.2627629e+02 2.22002400e+02 7.54677100e-03 1.06794800e-01
       21 -1    0    0  504  502 +0.0000000000e+00 +0.0000000000e+00 +1.5297304674e+03 1.5297304674e+03 0.0000000000e+00 0.0000e+00 1.0000e+00
       21 -1    0    0  506  503 -0.0000000000e+00 -0.0000000000e+00 -6.8534138680e+01 6.8534138680e+01 0.0000000000e+00 0.0000e+00 1.0000e+00
        6  1    1    2  501    0 +9.0605061246e+01 +1.3046296470e+02 +2.8745269892e+02 3.7119794773e+02 1.7300000000e+02 0.0000e+00 -1.0000e+00
       -6  1    1    2    0  503 -1.0123996166e+02 -5.7391709691e+01 +4.9070052335e+02 5.3315977136e+02 1.7300000000e+02 0.0000e+00 1.0000e+00
       21  1    1    2  504  505 +1.8818202753e+01 -7.3771193534e+00 +6.9099937457e+01 7.1995472089e+01 0.0000000000e+00 0.0000e+00 1.0000e+00
       21  1    1    2  505  501 +4.1315026160e+00 -3.6015449648e+01 +5.4089482611e+02 5.4210828701e+02 0.0000000000e+00 0.0000e+00 1.0000e+00
       21  1    1    2  506  502 -1.2314804958e+01 -2.9678686008e+01 +7.3048342851e+01 7.9803127869e+01 0.0000000000e+00 0.0000e+00 1.0000e+00
<mgrwt>
<rscale>  5 0.22200236E+03</rscale>
<asrwt>0</asrwt>
<pdfrwt beam="1">  1       21 0.23534312E+00 0.22200236E+03</pdfrwt>
<pdfrwt beam="2">  1       21 0.10543715E-01 0.22200236E+03</pdfrwt>
<totfact> 0.58386339E+03</totfact>
</mgrwt>
</event>
<event>
 7      1 +1.2627629e+02 2.65951900e+02 7.54677100e-03 1.12379100e-01
       21 -1    0    0  505  502 +0.0000000000e+00 +0.0000000000e+00 +3.1163347726e+02 3.1163347726e+02 0.0000000000e+00 0.0000e+00 1.0000e+00
       21 -1    0    0  501  503 -0.0000000000e+00 -0.0000000000e+00 -1.5216657427e+03 1.5216657427e+03 0.0000000000e+00 0.0000e+00 -1.0000e+00
        6  1    1    2  501    0 +9.2528523815e+01 -1.3334974238e+02 -6.8863496075e+02 7.2834798735e+02 1.7300000000e+02 0.0000e+00 -1.0000e+00
       -6  1    1    2    0  506 -1.6181986670e+02 +2.6448169653e+02 -5.3060172359e+02 6.3843827120e+02 1.7300000000e+02 0.0000e+00 1.0000e+00
       21  1    1    2  504  503 +4.2929856791e+01 -5.6551057375e+01 +1.3219939088e+02 1.5005890058e+02 0.0000000000e+00 0.0000e+00 1.0000e+00
       21  1    1    2  505  504 +1.2950384819e+02 -9.0512868472e+01 -1.3952595585e+02 2.1078737726e+02 0.0000000000e+00 0.0000e+00 -1.0000e+00
       21  1    1    2  506  502 -1.0314236209e+02 +1.5931971691e+01 +1.6530983906e+01 1.0566668353e+02 0.0000000000e+00 0.0000e+00 1.0000e+00
<mgrwt>
<rscale>  5 0.26595188E+03</rscale>
<asrwt>0</asrwt>
<pdfrwt beam="1">  1       21 0.47943611E-01 0.26595188E+03</pdfrwt>
<pdfrwt beam="2">  1       21 0.23410243E+00 0.26595188E+03</pdfrwt>
<totfact> 0.31588492E+02</totfact>
</mgrwt>
</event>
<event>
 7      1 +1.2627629e+02 3.43480400e+02 7.54677100e-03 1.11320700e-01
       21 -1    0    0  506  502 +0.0000000000e+00 +0.0000000000e+00 +1.1527935010e+03 1.1527935010e+03 0.0000000000e+00 0.0000e+00 1.0000e+00
       21 -1    0    0  504  503 -0.0000000000e+00 -0.0000000000e+00 -3.7013381322e+02 3.7013381322e+02 0.0000000000e+00 0.0000e+00 -1.0000e+00
        6  1    1    2  501    0 -3.1730385186e+01 +3.2137460620e+02 +1.0478848569e+02 3.8104866039e+02 1.7300000000e+02 0.0000e+00 -1.0000e+00
       -6  1    1    2    0  502 -1.6746861374e+00 -3.3211323300e+02 +6.2168302238e+02 7.2575531994e+02 1.7300000000e+02 0.0000e+00 1.0000e+00
       21  1    1    2  504  501 +4.0135350466e+01 -5.5246821942e+01 -1.6813338153e+02 1.8147146243e+02 0.0000000000e+00 0.0000e+00 -1.0000e+00
       21  1    1    2  505  503 +4.2461702403e+00 +3.0485884220e+01 +8.2884423116e+01 8.8415194925e+01 0.0000000000e+00 0.0000e+00 1.0000e+00
       21  1    1    2  506  505 -1.0976449383e+01 +3.5499564528e+01 +1.4143713813e+02 1.4623667654e+02 0.0000000000e+00 0.0000e+00 -1.0000e+00
<mgrwt>
<rscale>  5 0.34348043E+03</rscale>
<asrwt>0</asrwt>
<pdfrwt beam="1">  1       21 0.17735285E+00 0.34348043E+03</pdfrwt>
<pdfrwt beam="2">  1       21 0.56943664E-01 0.34348043E+03</pdfrwt>
<totfact> 0.48207925E+02</totfact>
</mgrwt>
</event>
<event>
 7      1 +1.2627629e+02 1.89782100e+02 7.54677100e-03 1.12821900e-01
       21 -1    0    0  506  502 +0.0000000000e+00 +0.0000000000e+00 +6.3012745872e+02 6.3012745872e+02 0.0000000000e+00 0.0000e+00 1.0000e+00
       21 -1    0    0  504  503 -0.0000000000e+00 -0.0000000000e+00 -2.7595605440e+02 2.7595605440e+02 0.0000000000e+00 0.0000e+00 -1.0000e+00
        6  1    1    2  501    0 -4.3606292379e+01 -1.3151332307e+02 -6.6125813150e+01 2.3129826209e+02 1.7300000000e+02 0.0000e+00 -1.0000e+00
       -6  1    1    2    0  505 -1.4277580648e+01 +6.4941117865e+01 +9.4240488847e+01 2.0792178298e+02 1.7300000000e+02 0.0000e+00 1.0000e+00
       21  1    1    2  504  502 +4.0942452519e+01 +1.1084930969e+01 +2.7841587804e+00 4.2507783440e+01 0.0000000000e+00 0.0000e+00 -1.0000e+00
       21  1    1    2  505  503 -1.1630417979e+01 -3.7268301274e+01 +3.2494793081e+02 3.2728481578e+02 0.0000000000e+00 0.0000e+00 1.0000e+00
       21  1    1    2  506  501 +2.8571838487e+01 +9.2755575510e+01 -1.6753609681e+00 9.7070868839e+01 0.0000000000e+00 0.0000e+00 1.0000e+00
<mgrwt>
<rscale>  5 0.18978209E+03</rscale>
<asrwt>0</asrwt>
<pdfrwt beam="1">  1       21 0.96942685E-01 0.18978209E+03</pdfrwt>
<pdfrwt beam="2">  1       21 0.42454778E-01 0.18978209E+03</pdfrwt>
<totfact> 0.47263569E+03</totfact>
</mgrwt>
</event>
<event>
 7      1 +1.2627629e+02 1.93130700e+02 7.54677100e-03 1.12385500e-01
       21 -1    0    0  506  502 +0.0000000000e+00 +0.0000000000e+00 +1.6443452302e+03 1.6443452302e+03 0.0000000000e+00 0.0000e+00 1.0000e+00
       21 -1    0    0  504  503 -0.0000000000e+00 -0.0000000000e+00 -1.9859442868e+02 1.9859442868e+02 0.0000000000e+00 0.0000e+00 1.0000e+00
        6  1    1    2  501    0 +9.7002247423e+01 +4.8015379479e+01 +7.3525582738e+02 7.6304983086e+02 1.7300000000e+02 0.0000e+00 1.0000e+00
       -6  1    1    2    0  503 -3.7251010115e+01 -6.0449734112e+01 +7.1168216783e+02 7.3584123023e+02 1.7300000000e+02 0.0000e+00 -1.0000e+00
       21  1    1    2  504  502 +1.8793817238e+01 -2.0971569651e+01 -1.6020891630e+01 3.2398815852e+01 0.0000000000e+00 0.0000e+00 1.0000e+00
       21  1    1    2  505  501 -5.7873688507e+01 +3.6654687876e+01 -1.3975999694e+02 1.5564635142e+02 0.0000000000e+00 0.0000e+00 1.0000e+00
       21  1    1    2  506  505 -2.0671366040e+01 -3.2487635922e+00 +1.5459369492e+02 1.5600343057e+02 0.0000000000e+00 0.0000e+00 1.0000e+00
<mgrwt>
<rscale>  5 0.19313067E+03</rscale>
<asrwt>0</asrwt>
<pdfrwt beam="1">  1       21 0.25297618E+00 0.19313067E+03</pdfrwt>
<pdfrwt beam="2">  1       21 0.30552990E-01 0.19313067E+03</pdfrwt>
<totfact> 0.65638357E+02</totfact>
</mgrwt>
</event>
<event>
 7      1 +1.2627629e+02 2.44278600e+02 7.54677100e-03 1.17372600e-01
       21 -1    0    0  504  502 +0.0000000000e+00 +0.0000000000e+00 +5.1343963124e+02 5.1343963124e+02 0.0000000000e+00 0.0000e+00 1.0000e+00
       21 -1    0    0  506  503 -0.0000000000e+00 -0.0000000000e+00 -2.5976271423e+02 2.5976271423e+02 0.0000000000e+00 0.0000e+00 -1.0000e+00
        6  1    1    2  501    0 -1.0089054635e+01 +1.9955752691e+02 +5.6315312082e+00 2.6435905453e+02 1.7300000000e+02 0.0000e+00 -1.0000e+00
       -6  1    1    2    0  502 +3.9380010754e+01 -1.5851241175e+02 +2.4932762359e+02 3.4463057585e+02 1.7300000000e+02 0.0000e+00 1.0000e+00
       21  1    1    2  504  503 +5.0158539149e+01 +1.5252409097e+01 -2.5225888193e+01 5.8179553693e+01 0.0000000000e+00 0.0000e+00 -1.0000e+00
       21  1    1    2  505  501 -2.7221895439e+01 -3.9133318481e+01 +5.2140385156e+00 4.7954503483e+01 0.0000000000e+00 0.0000e+00 -1.0000e+00
       21  1    1    2  506  505 -5.2227599830e+01 -1.7164205778e+01 +1.8729611892e+01 5.8078657919e+01 0.0000000000e+00 0.0000e+00 -1.0000e+00
<mgrwt>
<rscale>  5 0.24427863E+03</rscale>
<asrwt>0</asrwt>
<pdfrwt beam="1">  1       21 0.78990712E-01 0.24427863E+03</pdfrwt>
<pdfrwt beam="2">  1       21 0.39963495E-01 0.24427863E+03</pdfrwt>
<totfact> 0.82563594E+03</totfact>
</mgrwt>
</event>
<event>
 7      1 +1.2627629e+02 1.89114100e+02 7.54677100e-03 1.13461400e-01
       21 -1    0    0  506  502 +0.0000000000e+00 +0.0000000000e+00 +6.7580787694e+02 6.7580787694e+02 0.0000000000e+00 0.0000e+00 -1.0000e+00
       21 -1    0    0  501  503 -0.0000000000e+00 -0.0000000000e+00 -5.2433715780e+02 5.2433715780e+02 0.0000000000e+00 0.0000e+00 -1.0000e+00
        6  1    1    2  501    0 +8.7102454797e+01 +2.8283988485e+01 -3.0544708032e+02 3.6278608092e+02 1.7300000000e+02 0.0000e+00 -1.0000e+00
       -6  1    1    2    0  505 +4.3613660986e+01 -1.3224480393e+02 -1.0444745351e+02 2.4541619779e+02 1.7300000000e+02 0.0000e+00 -1.0000e+00
       21  1    1    2  504  503 -5.9816825941e+01 +3.0061869936e+01 +1.3059056225e+02 1.4675034460e+02 0.0000000000e+00 0.0000e+00 -1.0000e+00
       21  1    1    2  505  502 -6.8562287992e+01 +5.2567887275e+01 +2.8378821520e+02 2.9664780665e+02 0.0000000000e+00 0.0000e+00 -1.0000e+00
       21  1    1    2  506  504 -2.3370018501e+00 +2.1331058233e+01 +1.4698647552e+02 1.4854460478e+02 0.0000000000e+00 0.0000e+00 -1.0000e+00
<mgrwt>
<rscale>  5 0.18911407E+03</rscale>
<asrwt>0</asrwt>
<pdfrwt beam="1">  1       21 0.10397044E+00 0.18911407E+03</pdfrwt>
<pdfrwt beam="2">  1       21 0.80667255E-01 0.18911407E+03</pdfrwt>
<totfact> 0.10134076E+03</totfact>
</mgrwt>
</event>
<event>
 7      1 +1.2627629e+02 3.23020200e+02 7.54677100e-03 1.15211100e-01
       21 -1    0    0  505  502 +0.0000000000e+00 +0.0000000000e+00 +1.2788545100e+03 1.2788545100e+03 0.0000000000e+00 0.0000e+00 -1.0000e+00
       21 -1    0    0  504  503 -0.0000000000e+00 -0.0000000000e+00 -2.3714662331e+02 2.3714662331e+02 0.0000000000e+00 0.0000e+00 1.0000e+00
        6  1    1    2  501    0 +2.0966123718e+02 -4.8205356230e+01 +1.6895583638e+02 3.2366134368e+02 1.7300000000e+02 0.0000e+00 -1.0000e+00
       -6  1    1    2    0  502 -3.0263247433e+02 -6.9494477097e+01 +6.5764998751e+02 7.4756163822e+02 1.7300000000e+02 0.0000e+00 -1.0000e+00
       21  1    1    2  504  501 -5.6332909357e+01 +1.6638785909e+02 +4.4933353276e+01 1.8132104833e+02 0.0000000000e+00 0.0000e+00 1.0000e+00
       21  1    1    2  505  506 -2.0894301035e+01 +4.8907823222e+00 +2.8202159698e+01 3.5438021659e+01 0.0000000000e+00 0.0000e+00 -1.0000e+00
       21  1    1    2  506  503 +1.7019844755e+02 -5.3578808089e+01 +1.4196654980e+02 2.2801908141e+02 0.0000000000e+00 0.0000e+00 1.0000e+00
<mgrwt>
<rscale>  5 0.32302018E+03</rscale>
<asrwt>0</asrwt>
<pdfrwt beam="1">  1       21 0.19674684E+00 0.32302018E+03</pdfrwt>
<pdfrwt beam="2">  1       21 0.36484096E-01 0.32302018E+03</pdfrwt>
<totfact> 0.91195326E+02</totfact>
</mgrwt>
</event>
<event>
 7      1 +1.2627629e+02 2.55279500e+02 7.54677100e-03 1.12379100e-01
       21 -1    0    0  505  502 +0.0000000000e+00 +0.0000000000e+00 +1.6455788683e+02 1.6455788683e+02 0.0000000000e+00 0.0000e+00 -1.0000e+00
       21 -1    0    0  504  503 -0.0000000000e+00 -0.0000000000e+00 -2.5186773736e+03 2.5186773736e+03 0.0000000000e+00 0.0000e+00 -1.0000e+00
        6  1    1    2  501    0 +1.6509719860e+02 -9.3490136315e+01 -1.9131476309e+03 1.9303005850e+03 1.7300000000e+02 0.0000e+00 -1.0000e+00
       -6  1    1    2    0  506 -1.4799356447e+02 +1.0434236797e+02 -4.6927655433e+02 5.3192002155e+02 1.7300000000e+02 0.0000e+00 1.0000e+00
       21  1    1    2  504  501 -3.1243726594e+01 -1.8809702687e+01 +3.1881399276e+01 4.8439642716e+01 0.0000000000e+00 0.0000e+00 -1.0000e+00
       21  1    1    2  505  503 +2.3121711160e+01 +2.9391175033e+01 -8.2351055903e+01 9.0444187791e+01 0.0000000000e+00 0.0000e+00 -1.0000e+00
       21  1    1    2  506  502 -8.9816186999e+00 -2.1433704002e+01 +7.8774355085e+01 8.2130823451e+01 0.0000000000e+00 0.0000e+00 -1.0000e+00
<mgrwt>
<rscale>  5 0.25527955E+03</rscale>
<asrwt>0</asrwt>
<pdfrwt beam="1">  1       21 0.25316598E-01 0.25527955E+03</pdfrwt>
<pdfrwt beam="2">  1       21 0.38748883E+00 0.25527955E+03</pdfrwt>
<totfact> 0.13992318E+02</totfact>
</mgrwt>
</event>
<event>
 7      1 +1.2627629e+02 4.67475900e+02 7.54677100e-03 1.14101600e-01
       21 -1    0    0  501  502 +0.0000000000e+00 +0.0000000000e+00 +8.8521915010e+02 8.8521915010e+02 0.0000000000e+00 0.0000e+00 -1.0000e+00
       21 -1    0    0  505  503 -0.0000000000e+00 -0.0000000000e+00 -1.4080621500e+03 1.4080621500e+03 0.0000000000e+00 0.0000e+00 1.0000e+00
        6  1    1    2  501    0 -2.7229749254e+01 +3.8743522013e+01 +8.5209184665e-01 1.7936623373e+02 1.7300000000e+02 0.0000e+00 1.0000e+00
       -6  1    1    2    0  506 +2.0092418795e+02 -3.5585520394e+02 +2.6719571732e+02 5.1800193709e+02 1.7300000000e+02 0.0000e+00 -1.0000e+00
       21  1    1    2  504  502 +1.2780359440e+02 +5.6129438730e+02 +1.1461403975e+02 5.8695956084e+02 0.0000000000e+00 0.0000e+00 -1.0000e+00
       21  1    1    2  505  504 -3.0825060066e+02 -1.9423682228e+02 -8.8005307113e+02 9.5249135636e+02 0.0000000000e+00 0.0000e+00 1.0000e+00
       21  1    1    2  506  503 +6.7525675671e+00 -4.9945883090e+01 -2.5451777699e+01 5.6462212093e+01 0.0000000000e+00 0.0000e+00 -1.0000e+00
<mgrwt>
<rscale>  5 0.36753856E+03</rscale>
<asrwt>0</asrwt>
<pdfrwt beam="1">  1       21 0.13618756E+00 0.46747593E+03</pdfrwt>
<pdfrwt beam="2">  1       21 0.21662494E+00 0.46747593E+03</pdfrwt>
<totfact> 0.30874698E+01</totfact>
</mgrwt>
</event>
</LesHouchesEvents>
