<LesHouchesEvents version="3.0">
<header>
<!--
#*********************************************************************
#                                                                    *
#                        MadGraph5_aMC@NLO                           *
#                                                                    *
#                           Going Beyond                             *
#                                                                    *
#                   http://madgraph.hep.uiuc.edu                     *
#                   http://madgraph.phys.ucl.ac.be                   *
#                   http://amcatnlo.cern.ch                          *
#                                                                    *
#                     The MadGraph5_aMC@NLO team                     *
#                                                                    *
#....................................................................*
#                                                                    *
# This file contains all the information necessary to reproduce      *
# the events generated:                                              *
#                                                                    *
# 1. software version                                                *
# 2. proc_card          : code generation info including model       *
# 3. param_card         : model primary parameters in the LH format  *
# 4. run_card           : running parameters (collider and cuts)     *
# 5. pythia_card        : present only if pythia has been run        *
# 6. pgs_card           : present only if pgs has been run           *
# 7. delphes_cards      : present only if delphes has been run       *
#                                                                    *
#                                                                    *
#*********************************************************************
-->
<MGVersion>
#3.5.0_lo_vect
</MGVersion>
<MG5ProcCard>
<![CDATA[
#************************************************************
#*                     MadGraph5_aMC@NLO                    *
#*                                                          *
#*                *                       *                 *
#*                  *        * *        *                   *
#*                    * * * * 5 * * * *                     *
#*                  *        * *        *                   *
#*                *                       *                 *
#*                                                          *
#*                                                          *
#*         VERSION 3.5.0_lo_vect         2023-06-09         *
[1;31m#*                                                          *[1;0m
[1;31m#*          WARNING: UNKNOWN DEVELOPMENT VERSION.           *[1;0m
[1;31m#*            WARNING: DO NOT USE FOR PRODUCTION            *[1;0m
[1;31m#*                                                          *[1;0m
#*                                                          *
#*    The MadGraph5_aMC@NLO Development Team - Find us at   *
#*    https://server06.fynu.ucl.ac.be/projects/madgraph     *
#*                                                          *
#************************************************************
#*                                                          *
#*               Command File for MadGraph5_aMC@NLO         *
#*                                                          *
#*     run as ./bin/mg5_aMC  filename                       *
#*                                                          *
#************************************************************
set group_subprocesses Auto
set ignore_six_quark_processes False
set low_mem_multicore_nlo_generation False
set complex_mass_scheme False
set include_lepton_initiated_processes False
set gauge unitary
set loop_optimized_output True
set loop_color_flows False
set max_npoint_for_channel 0
set default_unset_couplings 99
set max_t_for_channel 99
set nlo_mixed_expansion True
set stdout_level DEBUG
set zerowidth_tchannel F
generate g g > t t~ g g g
define p = g u c d s u~ c~ d~ s~
define j = g u c d s u~ c~ d~ s~
define l+ = e+ mu+
define l- = e- mu-
define vl = ve vm vt
define vl~ = ve~ vm~ vt~
output madevent CODEGEN_mad_gg_ttggg --hel_recycling=False --vector_si\
ze=16384 --me_exporter=standalone_cudacpp
]]>
</MG5ProcCard>
<MGProcCard>
#*********************************************************************
#                        MadGraph/MadEvent                           *
#                   http://madgraph.hep.uiuc.edu                     *
#                                                                    *
#                          proc_card.dat                             *
#*********************************************************************
#                                                                    *
#            This Files is generated by MADGRAPH 5                   *
#                                                                    *
# WARNING: This Files is generated for MADEVENT (compatibility issue)*
#          This files is NOT a valid MG4 proc_card.dat               *
#          Running this in MG4 will NEVER reproduce the result of MG5*
#                                                                    *
#*********************************************************************
#*********************************************************************
# Process(es) requested : mg2 input                                  *
#*********************************************************************
# Begin PROCESS # This is TAG. Do not modify this line
g g > t t~ g g g           #Process
# Be carefull the coupling are here in MG5 convention
          
end_coup           # End the couplings input

done               # this tells MG there are no more procs
# End PROCESS  # This is TAG. Do not modify this line
#*********************************************************************
# Model information                                                  *
#*********************************************************************
# Begin MODEL  # This is TAG. Do not modify this line
sm
# End   MODEL  # This is TAG. Do not modify this line
#*********************************************************************
# Start multiparticle definitions                                    *
#*********************************************************************
# Begin MULTIPARTICLES # This is TAG. Do not modify this line

# End  MULTIPARTICLES # This is TAG. Do not modify this line
</MGProcCard>
<MGRunCard>
<![CDATA[
#*********************************************************************
#                       MadGraph5_aMC@NLO                            *
#                                                                    *
#                     run_card.dat MadEvent                          *
#                                                                    *
#  This file is used to set the parameters of the run.               *
#                                                                    *
#  Some notation/conventions:                                        *
#                                                                    *
#   Lines starting with a '# ' are info or comments                  *
#                                                                    *
#   mind the format:   value    = variable     ! comment             *
#                                                                    *
#   To display more options, you can type the command:               *
#      update to_full                                                *
#*********************************************************************
#                                                                    
#*********************************************************************
# Tag name for the run (one word)                                    *
#*********************************************************************
  tag_1     = run_tag ! name of the run 
#*********************************************************************
# Number of events and rnd seed                                      *
# Warning: Do not generate more than 1M events in a single run       *
#*********************************************************************
  100 = nevents ! Number of unweighted events requested 
 21 = iseed   ! rnd seed (0=assigned automatically=default))
#*********************************************************************
# Collider type and energy                                           *
# lpp: 0=No PDF, 1=proton, -1=antiproton,                            *
#                2=elastic photon of proton/ion beam                 *
#             +/-3=PDF of electron/positron beam                     *
#             +/-4=PDF of muon/antimuon beam                         *
#*********************************************************************
     1        = lpp1    ! beam 1 type 
     1        = lpp2    ! beam 2 type
     6500.0     = ebeam1  ! beam 1 total energy in GeV
     6500.0     = ebeam2  ! beam 2 total energy in GeV
# To see polarised beam options: type "update beam_pol"

#*********************************************************************
# PDF CHOICE: this automatically fixes alpha_s and its evol.         *
# pdlabel: lhapdf=LHAPDF (installation needed) [1412.7420]           *
#          iww=Improved Weizsaecker-Williams Approx.[hep-ph/9310350] *
#          eva=Effective W/Z/A Approx.       [2111.02442]            *
#          edff=EDFF in gamma-UPC            [eq.(11) in 2207.03012] *
#          chff=ChFF in gamma-UPC            [eq.(13) in 2207.03012] *
#          none=No PDF, same as lhapdf with lppx=0                   *
#*********************************************************************
     nn23lo1    = pdlabel     ! PDF set 
     230000    = lhaid     ! if pdlabel=lhapdf, this is the lhapdf number
# To see heavy ion options: type "update ion_pdf"
#*********************************************************************
# Renormalization and factorization scales                           *
#*********************************************************************
 False = fixed_ren_scale  ! if .true. use fixed ren scale
     False = fixed_fac_scale  ! if .true. use fixed fac scale
 91.188  = scale            ! fixed ren scale
 91.188  = dsqrt_q2fact1    ! fixed fact scale for pdf1
 91.188  = dsqrt_q2fact2    ! fixed fact scale for pdf2
 -1 = dynamical_scale_choice ! Choose one of the preselected dynamical choices
 1.0  = scalefact        ! scale factor for event-by-event scales

 
#*********************************************************************
# Type and output format
#*********************************************************************
  False     = gridpack  !True = setting up the grid pack
  -1.0 = time_of_flight ! threshold (in mm) below which the invariant livetime is not written (-1 means not written)
  average =  event_norm       ! average/sum. Normalization of the weight in the LHEF
# To see MLM/CKKW  merging options: type "update MLM" or "update CKKW"

#*********************************************************************
#
#*********************************************************************
# Phase-Space Optimization strategy (basic options)
#*********************************************************************
   0  = nhel          ! using helicities importance sampling or not.
                             ! 0: sum over helicity, 1: importance sampling
   1  = sde_strategy  ! default integration strategy (hep-ph/2021.00773)
                             ! 1 is old strategy (using amp square)
			     ! 2 is new strategy (using only the denominator)
# To see advanced option for Phase-Space optimization: type "update psoptim"			     
#*********************************************************************
# Customization (custom cuts/scale/bias/...)                         *
# list of files containing fortran function that overwrite default   *
#*********************************************************************
  = custom_fcts ! List of files containing user hook function
#*******************************                                                 
# Parton level cuts definition *
#*******************************
  0.0  = dsqrt_shat ! minimal shat for full process
#                                                                    
#
#*********************************************************************
# BW cutoff (M+/-bwcutoff*Gamma) ! Define on/off-shell for "$" and decay  
#*********************************************************************
  15.0  = bwcutoff      ! (M+/-bwcutoff*Gamma)
#*********************************************************************
# Standard Cuts                                                      *
#*********************************************************************
# Minimum and maximum pt's (for max, -1 means no cut)                *
#*********************************************************************
 20.0  = ptj       ! minimum pt for the jets 
 -1.0  = ptjmax    ! maximum pt for the jets
 {} = pt_min_pdg ! pt cut for other particles (use pdg code). Applied on particle and anti-particle
 {}	= pt_max_pdg ! pt cut for other particles (syntax e.g. {6: 100, 25: 50}) 
#
# For display option for energy cut in the partonic center of mass frame type 'update ecut'
#
#*********************************************************************
# Maximum and minimum absolute rapidity (for max, -1 means no cut)   *
#*********************************************************************
 5.0 = etaj    ! max rap for the jets 
 {} = eta_min_pdg ! rap cut for other particles (use pdg code). Applied on particle and anti-particle
 {} = eta_max_pdg ! rap cut for other particles (syntax e.g. {6: 2.5, 23: 5})
#*********************************************************************
# Minimum and maximum DeltaR distance                                *
#*********************************************************************
 0.4 = drjj    ! min distance between jets 
 -1.0  = drjjmax ! max distance between jets
#*********************************************************************
# Minimum and maximum invariant mass for pairs                       *
#*********************************************************************
 0.0   = mmjj    ! min invariant mass of a jet pair 
 -1.0  = mmjjmax ! max invariant mass of a jet pair
 {} = mxx_min_pdg ! min invariant mass of a pair of particles X/X~ (e.g. {6:250})
 {'default': False} = mxx_only_part_antipart ! if True the invariant mass is applied only 
                       ! to pairs of particle/antiparticle and not to pairs of the same pdg codes.  
#*********************************************************************
# Inclusive cuts                                                     *
#*********************************************************************
 0.0  = ptheavy   ! minimum pt for at least one heavy final state
 0.0  = xptj ! minimum pt for at least one jet  
 #*********************************************************************
 # Control the pt's of the jets sorted by pt                          *
 #*********************************************************************
 0.0   = ptj1min ! minimum pt for the leading jet in pt
 0.0   = ptj2min ! minimum pt for the second jet in pt
 0.0   = ptj3min ! minimum pt for the third jet in pt
 -1.0  = ptj1max ! maximum pt for the leading jet in pt 
 -1.0  = ptj2max ! maximum pt for the second jet in pt
 -1.0  = ptj3max ! maximum pt for the third jet in pt
 0   = cutuse  ! reject event if fails any (0) / all (1) jet pt cuts
 #*********************************************************************
 # Control the Ht(k)=Sum of k leading jets                            *
 #*********************************************************************
 0.0   = htjmin ! minimum jet HT=Sum(jet pt)
 -1.0  = htjmax ! maximum jet HT=Sum(jet pt)
 0.0   = ihtmin  !inclusive Ht for all partons (including b)
 -1.0  = ihtmax  !inclusive Ht for all partons (including b)
 0.0   = ht2min ! minimum Ht for the two leading jets
 0.0   = ht3min ! minimum Ht for the three leading jets
 -1.0  = ht2max ! maximum Ht for the two leading jets
 -1.0  = ht3max ! maximum Ht for the three leading jets
 #*********************************************************************
 # WBF cuts                                                           *
 #*********************************************************************
 0.0   = xetamin ! minimum rapidity for two jets in the WBF case  
 0.0   = deltaeta ! minimum rapidity for two jets in the WBF case 
#*********************************************************************
# maximal pdg code for quark to be considered as a light jet         *
# (otherwise b cuts are applied)                                     *
#*********************************************************************
 4 = maxjetflavor    ! Maximum jet pdg code
#*********************************************************************
#
#*********************************************************************
# Store info for systematics studies                                 *
# WARNING: Do not use for interference type of computation           *
#*********************************************************************
   True  = use_syst      ! Enable systematics studies
#
systematics = systematics_program ! none, systematics [python], SysCalc [depreceted, C++]
['--mur=0.5,1,2', '--muf=0.5,1,2', '--pdf=errorset'] = systematics_arguments ! see: https://cp3.irmp.ucl.ac.be/projects/madgraph/wiki/Systematics#Systematicspythonmodule

#*********************************************************************
# Options for the cudacpp plugin
#*********************************************************************

# Set cudacpp-specific values of non-cudacpp-specific options
-O3 -ffast-math -fbounds-check = global_flag ! build flags for Fortran code (for a fair comparison to cudacpp)

# New cudacpp-specific options (default values are defined in banner.py)
CUDA = cudacpp_backend ! valid backends are FORTRAN, CPP, CUDA
]]>
</MGRunCard>
<slha>
######################################################################
## PARAM_CARD AUTOMATICALY GENERATED BY MG5 FOLLOWING UFO MODEL   ####
######################################################################
##                                                                  ##
##  Width set on Auto will be computed following the information    ##
##        present in the decay.py files of the model.               ##
##        See  arXiv:1402.1178 for more details.                    ##
##                                                                  ##
######################################################################

###################################
## INFORMATION FOR MASS
###################################
Block mass 
    5 4.700000e+00 # MB 
    6 1.730000e+02 # MT 
   15 1.777000e+00 # MTA 
   23 9.118800e+01 # MZ 
   25 1.250000e+02 # MH 
## Dependent parameters, given by model restrictions.
## Those values should be edited following the 
## analytical expression. MG5 ignores those values 
## but they are important for interfacing the output of MG5
## to external program such as Pythia.
  1 0.000000e+00 # d : 0.0 
  2 0.000000e+00 # u : 0.0 
  3 0.000000e+00 # s : 0.0 
  4 0.000000e+00 # c : 0.0 
  11 0.000000e+00 # e- : 0.0 
  12 0.000000e+00 # ve : 0.0 
  13 0.000000e+00 # mu- : 0.0 
  14 0.000000e+00 # vm : 0.0 
  16 0.000000e+00 # vt : 0.0 
  21 0.000000e+00 # g : 0.0 
  22 0.000000e+00 # a : 0.0 
  24 8.041900e+01 # w+ : cmath.sqrt(MZ__exp__2/2. + cmath.sqrt(MZ__exp__4/4. - (aEW*cmath.pi*MZ__exp__2)/(Gf*sqrt__2))) 

###################################
## INFORMATION FOR SMINPUTS
###################################
Block sminputs 
    1 1.325070e+02 # aEWM1 
    2 1.166390e-05 # Gf 
    3 1.180000e-01 # aS (Note that Parameter not used if you use a PDF set) 

###################################
## INFORMATION FOR YUKAWA
###################################
Block yukawa 
    5 4.700000e+00 # ymb 
    6 1.730000e+02 # ymt 
   15 1.777000e+00 # ymtau 

###################################
## INFORMATION FOR DECAY
###################################
DECAY   6 1.491500e+00 # WT 
DECAY  23 2.441404e+00 # WZ 
DECAY  24 2.047600e+00 # WW 
DECAY  25 6.382339e-03 # WH 
## Dependent parameters, given by model restrictions.
## Those values should be edited following the 
## analytical expression. MG5 ignores those values 
## but they are important for interfacing the output of MG5
## to external program such as Pythia.
DECAY  1 0.000000e+00 # d : 0.0 
DECAY  2 0.000000e+00 # u : 0.0 
DECAY  3 0.000000e+00 # s : 0.0 
DECAY  4 0.000000e+00 # c : 0.0 
DECAY  5 0.000000e+00 # b : 0.0 
DECAY  11 0.000000e+00 # e- : 0.0 
DECAY  12 0.000000e+00 # ve : 0.0 
DECAY  13 0.000000e+00 # mu- : 0.0 
DECAY  14 0.000000e+00 # vm : 0.0 
DECAY  15 0.000000e+00 # ta- : 0.0 
DECAY  16 0.000000e+00 # vt : 0.0 
DECAY  21 0.000000e+00 # g : 0.0 
DECAY  22 0.000000e+00 # a : 0.0
</slha>
<MGGenerationInfo>
#  Number of Events        :       100
#  Integrated weight (pb)  :       126.1863760641
</MGGenerationInfo>
</header>
<init>
2212 2212 6.500000e+03 6.500000e+03 0 0 247000 247000 -4 1
1.261864e+02 3.115515e-01 1.261864e+02 1
<generator name='MadGraph5_aMC@NLO' version='3.5.0_lo_vect'>please cite 1405.0301 </generator>
</init>
<event>
 7      1 +1.2618638e+02 2.30795700e+02 7.54677100e-03 1.14769700e-01
       21 -1    0    0  501  502 +0.0000000000e+00 +0.0000000000e+00 +1.3725462877e+02 1.3725462877e+02 0.0000000000e+00 0.0000e+00 1.0000e+00
       21 -1    0    0  504  503 -0.0000000000e+00 -0.0000000000e+00 -8.4968391968e+02 8.4968391968e+02 0.0000000000e+00 0.0000e+00 -1.0000e+00
        6  1    1    2  501    0 +1.5505156433e+02 -2.6403986130e+00 -1.6197604147e+02 2.8321934488e+02 1.7300000000e+02 0.0000e+00 -1.0000e+00
       -6  1    1    2    0  503 -1.4680398902e+02 +4.2800103237e+01 -1.3398986964e+02 2.6695607353e+02 1.7300000000e+02 0.0000e+00 -1.0000e+00
       21  1    1    2  504  505 -7.6404681859e+00 -2.0478367578e+01 -1.9346779816e+01 2.9189693078e+01 0.0000000000e+00 0.0000e+00 -1.0000e+00
       21  1    1    2  505  506 -2.4196404333e+01 -3.4104220796e+01 -3.5327644882e+02 3.5574262206e+02 0.0000000000e+00 0.0000e+00 -1.0000e+00
       21  1    1    2  506  502 +2.3589297212e+01 +1.4422883749e+01 -4.3840151168e+01 5.1830814898e+01 0.0000000000e+00 0.0000e+00 -1.0000e+00
<mgrwt>
<rscale>  5 0.23079569E+03</rscale>
<asrwt>0</asrwt>
<pdfrwt beam="1">  1       21 0.21116096E-01 0.23079569E+03</pdfrwt>
<pdfrwt beam="2">  1       21 0.13072061E+00 0.23079569E+03</pdfrwt>
<totfact> 0.86508266E+03</totfact>
</mgrwt>
</event>
<event>
 7      1 +1.2618638e+02 2.42113000e+02 7.54677100e-03 9.91481900e-02
       21 -1    0    0  501  502 +0.0000000000e+00 +0.0000000000e+00 +1.5504521106e+03 1.5504521106e+03 0.0000000000e+00 0.0000e+00 -1.0000e+00
       21 -1    0    0  505  503 -0.0000000000e+00 -0.0000000000e+00 -1.6244231476e+02 1.6244231476e+02 0.0000000000e+00 0.0000e+00 -1.0000e+00
        6  1    1    2  501    0 -1.2326850279e+01 -2.0874558127e+01 +9.3291708587e+02 9.4913170189e+02 1.7300000000e+02 0.0000e+00 -1.0000e+00
       -6  1    1    2    0  506 +1.0841843335e+01 -1.9084989313e+02 +2.5819258776e+02 3.6487482737e+02 1.7300000000e+02 0.0000e+00 -1.0000e+00
       21  1    1    2  504  502 +6.9441992591e+01 +5.3229545842e+01 +5.6675299579e+01 1.0424809096e+02 0.0000000000e+00 0.0000e+00 -1.0000e+00
       21  1    1    2  505  504 -4.0838716906e+01 +1.5544957343e+02 +1.8321412018e+02 2.4372071006e+02 0.0000000000e+00 0.0000e+00 -1.0000e+00
       21  1    1    2  506  503 -2.7118268740e+01 +3.0453319879e+00 -4.2989297521e+01 5.0919095119e+01 0.0000000000e+00 0.0000e+00 -1.0000e+00
<mgrwt>
<rscale>  5 0.22290210E+03</rscale>
<asrwt>0</asrwt>
<pdfrwt beam="1">  1       21 0.23853108E+00 0.24211304E+03</pdfrwt>
<pdfrwt beam="2">  1       21 0.24991126E-01 0.24211304E+03</pdfrwt>
<totfact> 0.11171112E+03</totfact>
</mgrwt>
</event>
<event>
 7      1 +1.2618638e+02 3.50417600e+02 7.54677100e-03 1.10770100e-01
       21 -1    0    0  501  502 +0.0000000000e+00 +0.0000000000e+00 +7.1275872799e+02 7.1275872799e+02 0.0000000000e+00 0.0000e+00 -1.0000e+00
       21 -1    0    0  506  503 -0.0000000000e+00 -0.0000000000e+00 -1.0738745553e+03 1.0738745553e+03 0.0000000000e+00 0.0000e+00 -1.0000e+00
        6  1    1    2  501    0 +1.6220349568e+02 -3.1456466822e+01 +1.9902364710e+02 3.1118948475e+02 1.7300000000e+02 0.0000e+00 -1.0000e+00
       -6  1    1    2    0  505 -2.8750035687e+01 +3.5729664431e+02 +2.8029393989e+02 4.8680709662e+02 1.7300000000e+02 0.0000e+00 1.0000e+00
       21  1    1    2  504  502 -9.4555199077e+01 -4.1939254558e+01 -4.5780110091e+02 4.6934149054e+02 0.0000000000e+00 0.0000e+00 -1.0000e+00
       21  1    1    2  505  503 -2.0760947638e+01 -2.5745321627e+02 -4.0488951900e+02 4.8025899066e+02 0.0000000000e+00 0.0000e+00 -1.0000e+00
       21  1    1    2  506  504 -1.8137313279e+01 -2.6447706660e+01 +2.2257205662e+01 3.9036220673e+01 0.0000000000e+00 0.0000e+00 1.0000e+00
<mgrwt>
<rscale>  5 0.31579549E+03</rscale>
<asrwt>0</asrwt>
<pdfrwt beam="1">  1       21 0.10965519E+00 0.35041761E+03</pdfrwt>
<pdfrwt beam="2">  1       21 0.16521147E+00 0.35041761E+03</pdfrwt>
<totfact> 0.13009004E+02</totfact>
</mgrwt>
</event>
<event>
 7      1 +1.2618638e+02 2.01554000e+02 7.54677100e-03 1.17191400e-01
       21 -1    0    0  504  502 +0.0000000000e+00 +0.0000000000e+00 +1.7514730142e+03 1.7514730142e+03 0.0000000000e+00 0.0000e+00 1.0000e+00
       21 -1    0    0  501  503 -0.0000000000e+00 -0.0000000000e+00 -7.1349649750e+02 7.1349649750e+02 0.0000000000e+00 0.0000e+00 -1.0000e+00
        6  1    1    2  501    0 -2.1649052101e+01 +1.2346805632e+02 -2.3856401201e+02 3.2024183083e+02 1.7300000000e+02 0.0000e+00 1.0000e+00
       -6  1    1    2    0  505 -2.5912477541e+01 -8.2947344710e+01 +8.7393944261e+01 2.1241096954e+02 1.7300000000e+02 0.0000e+00 1.0000e+00
       21  1    1    2  504  506 +2.3852844858e+01 -8.6116306147e+00 +1.5426884608e+03 1.5428968876e+03 0.0000000000e+00 0.0000e+00 1.0000e+00
       21  1    1    2  505  502 +1.7031423215e+01 -1.1637583787e+01 +1.1592661619e+01 2.3662048443e+01 0.0000000000e+00 0.0000e+00 -1.0000e+00
       21  1    1    2  506  503 +6.6772615679e+00 -2.0271497205e+01 -3.6513453797e+02 3.6575777537e+02 0.0000000000e+00 0.0000e+00 -1.0000e+00
<mgrwt>
<rscale>  5 0.20155402E+03</rscale>
<asrwt>0</asrwt>
<pdfrwt beam="1">  1       21 0.26945739E+00 0.20155402E+03</pdfrwt>
<pdfrwt beam="2">  1       21 0.10976869E+00 0.20155402E+03</pdfrwt>
<totfact> 0.33106353E+01</totfact>
</mgrwt>
</event>
<event>
 7      1 +1.2618638e+02 2.26101600e+02 7.54677100e-03 1.07425500e-01
       21 -1    0    0  505  502 +0.0000000000e+00 +0.0000000000e+00 +1.7853962960e+03 1.7853962960e+03 0.0000000000e+00 0.0000e+00 1.0000e+00
       21 -1    0    0  504  503 -0.0000000000e+00 -0.0000000000e+00 -6.8848876783e+01 6.8848876783e+01 0.0000000000e+00 0.0000e+00 1.0000e+00
        6  1    1    2  501    0 -8.5540336393e+01 -1.1519228332e+02 +6.7860735626e+02 7.1485897578e+02 1.7300000000e+02 0.0000e+00 1.0000e+00
       -6  1    1    2    0  502 +1.0509854886e+02 +1.1373180714e+02 +5.9900782796e+02 6.4243288123e+02 1.7300000000e+02 0.0000e+00 1.0000e+00
       21  1    1    2  504  501 -6.1276391204e+01 +1.8709343373e+00 +7.1239384054e+00 6.1717477368e+01 0.0000000000e+00 0.0000e+00 1.0000e+00
       21  1    1    2  505  506 +1.2419090183e+01 +1.6014465073e+01 +1.3104149458e+02 1.3259928429e+02 0.0000000000e+00 0.0000e+00 1.0000e+00
       21  1    1    2  506  503 +2.9299088552e+01 -1.6424923232e+01 +3.0076680205e+02 3.0263655415e+02 0.0000000000e+00 0.0000e+00 1.0000e+00
<mgrwt>
<rscale>  5 0.22610156E+03</rscale>
<asrwt>0</asrwt>
<pdfrwt beam="1">  1       21 0.27467632E+00 0.22610156E+03</pdfrwt>
<pdfrwt beam="2">  1       21 0.10592136E-01 0.22610156E+03</pdfrwt>
<totfact> 0.33772995E+03</totfact>
</mgrwt>
</event>
<event>
 7      1 +1.2618638e+02 2.37772600e+02 7.54677100e-03 1.16127700e-01
       21 -1    0    0  503  502 +0.0000000000e+00 +0.0000000000e+00 +7.5616098266e+02 7.5616098266e+02 0.0000000000e+00 0.0000e+00 -1.0000e+00
       21 -1    0    0  505  503 -0.0000000000e+00 -0.0000000000e+00 -6.5904649635e+02 6.5904649635e+02 0.0000000000e+00 0.0000e+00 -1.0000e+00
        6  1    1    2  501    0 -8.5445598439e+01 -9.3259946316e+01 -3.6240305442e+01 2.1734932164e+02 1.7300000000e+02 0.0000e+00 -1.0000e+00
       -6  1    1    2    0  506 +5.6109694508e+01 +1.6266244670e+02 +5.7605663156e+02 6.2560179999e+02 1.7300000000e+02 0.0000e+00 -1.0000e+00
       21  1    1    2  504  501 +7.5080473775e+01 -6.6061958645e+00 +3.5412123916e+00 7.5453691436e+01 0.0000000000e+00 0.0000e+00 -1.0000e+00
       21  1    1    2  505  504 -3.0860285645e+01 -1.1336767950e+02 -1.2612083611e+02 1.7236894524e+02 0.0000000000e+00 0.0000e+00 -1.0000e+00
       21  1    1    2  506  502 -1.4884284199e+01 +5.0571374979e+01 -3.2012221610e+02 3.2443372069e+02 0.0000000000e+00 0.0000e+00 -1.0000e+00
<mgrwt>
<rscale>  5 0.23777263E+03</rscale>
<asrwt>0</asrwt>
<pdfrwt beam="1">  1       21 0.11633246E+00 0.23777263E+03</pdfrwt>
<pdfrwt beam="2">  1       21 0.10139177E+00 0.23777263E+03</pdfrwt>
<totfact> 0.43201283E+02</totfact>
</mgrwt>
</event>
<event>
 7      1 +1.2618638e+02 1.85998300e+02 7.54677100e-03 1.07499700e-01
       21 -1    0    0  505  502 +0.0000000000e+00 +0.0000000000e+00 +1.2649812554e+03 1.2649812554e+03 0.0000000000e+00 0.0000e+00 -1.0000e+00
       21 -1    0    0  501  503 -0.0000000000e+00 -0.0000000000e+00 -5.5054639784e+02 5.5054639784e+02 0.0000000000e+00 0.0000e+00 -1.0000e+00
        6  1    1    2  501    0 -9.1081142676e+01 -1.0083433832e+02 +1.9555566168e+02 2.9433714538e+02 1.7300000000e+02 0.0000e+00 -1.0000e+00
       -6  1    1    2    0  506 -1.8289924740e+01 +5.6653438870e+01 -4.0570570789e+01 1.8740091968e+02 1.7300000000e+02 0.0000e+00 -1.0000e+00
       21  1    1    2  504  503 +4.2746270841e+01 -8.2543087254e+00 -3.5360087737e+02 3.5627090501e+02 0.0000000000e+00 0.0000e+00 -1.0000e+00
       21  1    1    2  505  504 -4.9807231412e+01 +1.4977472638e+02 +6.8940801301e+02 7.0724581114e+02 0.0000000000e+00 0.0000e+00 -1.0000e+00
       21  1    1    2  506  502 +1.1643202799e+02 -9.7339518206e+01 +2.2364263100e+02 2.7027287202e+02 0.0000000000e+00 0.0000e+00 -1.0000e+00
<mgrwt>
<rscale>  5 0.18599833E+03</rscale>
<asrwt>0</asrwt>
<pdfrwt beam="1">  1       21 0.19461250E+00 0.18599833E+03</pdfrwt>
<pdfrwt beam="2">  1       21 0.84699446E-01 0.18599833E+03</pdfrwt>
<totfact> 0.17737231E+02</totfact>
</mgrwt>
</event>
<event>
 7      1 +1.2618638e+02 1.82436600e+02 7.54677100e-03 1.12385500e-01
       21 -1    0    0  506  502 +0.0000000000e+00 +0.0000000000e+00 +8.9285518694e+01 8.9285518694e+01 0.0000000000e+00 0.0000e+00 1.0000e+00
       21 -1    0    0  504  503 -0.0000000000e+00 -0.0000000000e+00 -1.4705725588e+03 1.4705725588e+03 0.0000000000e+00 0.0000e+00 1.0000e+00
        6  1    1    2  501    0 +1.1123485880e+02 -2.0090893320e+01 -7.5654767704e+02 7.8426412989e+02 1.7300000000e+02 0.0000e+00 1.0000e+00
       -6  1    1    2    0  503 +1.8674758965e+01 -5.5320159349e+01 -4.1519516080e+02 4.5356927608e+02 1.7300000000e+02 0.0000e+00 -1.0000e+00
       21  1    1    2  504  502 -5.3019220671e+01 +2.8109189898e+00 -7.6571979745e+01 9.3178361802e+01 0.0000000000e+00 0.0000e+00 1.0000e+00
       21  1    1    2  505  501 -4.5293203860e+01 +6.8516091669e+01 -1.6459956458e+02 1.8395365121e+02 0.0000000000e+00 0.0000e+00 1.0000e+00
       21  1    1    2  506  505 -3.1597193234e+01 +4.0840420104e+00 +3.1627342075e+01 4.4892658488e+01 0.0000000000e+00 0.0000e+00 -1.0000e+00
<mgrwt>
<rscale>  5 0.18243662E+03</rscale>
<asrwt>0</asrwt>
<pdfrwt beam="1">  1       21 0.13736234E-01 0.18243662E+03</pdfrwt>
<pdfrwt beam="2">  1       21 0.22624193E+00 0.18243662E+03</pdfrwt>
<totfact> 0.42856098E+03</totfact>
</mgrwt>
</event>
<event>
 7      1 +1.2618638e+02 1.82667400e+02 7.54677100e-03 1.17382100e-01
       21 -1    0    0  504  502 +0.0000000000e+00 +0.0000000000e+00 +6.9074224713e+02 6.9074224713e+02 0.0000000000e+00 0.0000e+00 -1.0000e+00
       21 -1    0    0  501  503 -0.0000000000e+00 -0.0000000000e+00 -2.7091145498e+02 2.7091145498e+02 0.0000000000e+00 0.0000e+00 1.0000e+00
        6  1    1    2  501    0 -4.4272597768e+01 +7.2182464821e+01 +4.0161065132e+02 4.4541046956e+02 1.7300000000e+02 0.0000e+00 -1.0000e+00
       -6  1    1    2    0  502 +6.3529701495e+01 +5.4888124394e+01 +1.7156593167e+02 2.5770641840e+02 1.7300000000e+02 0.0000e+00 -1.0000e+00
       21  1    1    2  504  505 +1.6952605036e+01 -3.2811249158e+01 +6.5722161825e+00 3.7512170216e+01 0.0000000000e+00 0.0000e+00 1.0000e+00
       21  1    1    2  505  506 -5.5183507530e+01 -1.1054012459e+02 -1.1100178471e+02 1.6608953867e+02 0.0000000000e+00 0.0000e+00 1.0000e+00
       21  1    1    2  506  503 +1.8973798768e+01 +1.6280784528e+01 -4.8916222314e+01 5.4935105261e+01 0.0000000000e+00 0.0000e+00 -1.0000e+00
<mgrwt>
<rscale>  5 0.18266739E+03</rscale>
<asrwt>0</asrwt>
<pdfrwt beam="1">  1       21 0.10626804E+00 0.18266739E+03</pdfrwt>
<pdfrwt beam="2">  1       21 0.41678686E-01 0.18266739E+03</pdfrwt>
<totfact> 0.39670243E+03</totfact>
</mgrwt>
</event>
<event>
 7      1 +1.2618638e+02 1.76514500e+02 7.54677100e-03 1.14101600e-01
       21 -1    0    0  501  502 +0.0000000000e+00 +0.0000000000e+00 +9.8580419655e+02 9.8580419655e+02 0.0000000000e+00 0.0000e+00 1.0000e+00
       21 -1    0    0  505  503 -0.0000000000e+00 -0.0000000000e+00 -3.0962630332e+02 3.0962630332e+02 0.0000000000e+00 0.0000e+00 -1.0000e+00
        6  1    1    2  501    0 -4.3422191901e+01 -1.1740726130e+02 +1.5419460381e+02 2.6339120638e+02 1.7300000000e+02 0.0000e+00 -1.0000e+00
       -6  1    1    2    0  506 -1.1517831650e+02 -3.4958052218e+01 +4.0022473308e+02 4.5232394031e+02 1.7300000000e+02 0.0000e+00 -1.0000e+00
       21  1    1    2  504  502 +1.3802126765e+02 +3.1366710198e+01 +3.0927089620e+02 3.4012090213e+02 0.0000000000e+00 0.0000e+00 1.0000e+00
       21  1    1    2  505  504 +1.0100882749e+01 +9.3361110363e+01 -1.8787337081e+02 2.1003506426e+02 0.0000000000e+00 0.0000e+00 -1.0000e+00
       21  1    1    2  506  503 +1.0478357997e+01 +2.7637492954e+01 +3.6103094377e-01 2.9559386774e+01 0.0000000000e+00 0.0000e+00 -1.0000e+00
<mgrwt>
<rscale>  5 0.17651447E+03</rscale>
<asrwt>0</asrwt>
<pdfrwt beam="1">  1       21 0.15166218E+00 0.17651447E+03</pdfrwt>
<pdfrwt beam="2">  1       21 0.47634816E-01 0.17651447E+03</pdfrwt>
<totfact> 0.12446430E+03</totfact>
</mgrwt>
</event>
<event>
 7      1 +1.2618638e+02 2.40321300e+02 7.54677100e-03 1.17349800e-01
       21 -1    0    0  506  502 +0.0000000000e+00 +0.0000000000e+00 +3.7195067176e+02 3.7195067176e+02 0.0000000000e+00 0.0000e+00 -1.0000e+00
       21 -1    0    0  501  503 -0.0000000000e+00 -0.0000000000e+00 -7.1098672537e+02 7.1098672537e+02 0.0000000000e+00 0.0000e+00 -1.0000e+00
        6  1    1    2  501    0 -1.3454893481e+02 -7.3532632273e+01 +7.7565956052e+01 2.4383589031e+02 1.7300000000e+02 0.0000e+00 -1.0000e+00
       -6  1    1    2    0  502 +2.2042454587e+01 +2.4883854464e+02 +2.3291163404e+01 3.0475887090e+02 1.7300000000e+02 0.0000e+00 -1.0000e+00
       21  1    1    2  504  505 +3.4411956729e+01 -9.4067041601e+01 -1.0097975013e+02 1.4223115347e+02 0.0000000000e+00 0.0000e+00 -1.0000e+00
       21  1    1    2  505  503 -3.5385311779e+01 -6.9186507077e+01 -1.8370389470e+02 1.9946431756e+02 0.0000000000e+00 0.0000e+00 -1.0000e+00
       21  1    1    2  506  504 +1.1347983527e+02 -1.2052363688e+01 -1.5520952823e+02 1.9264716488e+02 0.0000000000e+00 0.0000e+00 -1.0000e+00
<mgrwt>
<rscale>  5 0.24032131E+03</rscale>
<asrwt>0</asrwt>
<pdfrwt beam="1">  1       21 0.57223180E-01 0.24032131E+03</pdfrwt>
<pdfrwt beam="2">  1       21 0.10938257E+00 0.24032131E+03</pdfrwt>
<totfact> 0.18230316E+03</totfact>
</mgrwt>
</event>
<event>
 7      1 +1.2618638e+02 2.50407600e+02 7.54677100e-03 1.14769700e-01
       21 -1    0    0  501  502 +0.0000000000e+00 +0.0000000000e+00 +4.5188976350e+02 4.5188976350e+02 0.0000000000e+00 0.0000e+00 -1.0000e+00
       21 -1    0    0  506  503 -0.0000000000e+00 -0.0000000000e+00 -1.2081093459e+03 1.2081093459e+03 0.0000000000e+00 0.0000e+00 1.0000e+00
        6  1    1    2  501    0 -1.9187186965e+01 +2.0161528587e+02 +1.2363656946e+02 2.9365263995e+02 1.7300000000e+02 0.0000e+00 1.0000e+00
       -6  1    1    2    0  503 +5.0991537599e+01 -2.3383142935e+02 -2.4509873072e+01 2.9632247322e+02 1.7300000000e+02 0.0000e+00 -1.0000e+00
       21  1    1    2  504  505 -4.1562213667e+01 -1.3502301825e+02 +2.2355648959e+01 1.4303289168e+02 0.0000000000e+00 0.0000e+00 -1.0000e+00
       21  1    1    2  505  502 -1.0098939772e+02 +1.1460862652e+02 -3.0268476032e+02 3.3904580790e+02 0.0000000000e+00 0.0000e+00 -1.0000e+00
       21  1    1    2  506  504 +1.1074726076e+02 +5.2630535201e+01 -5.7501716743e+02 5.8794529664e+02 0.0000000000e+00 0.0000e+00 1.0000e+00
<mgrwt>
<rscale>  5 0.25040757E+03</rscale>
<asrwt>0</asrwt>
<pdfrwt beam="1">  1       21 0.69521503E-01 0.25040757E+03</pdfrwt>
<pdfrwt beam="2">  1       21 0.18586297E+00 0.25040757E+03</pdfrwt>
<totfact> 0.29300340E+02</totfact>
</mgrwt>
</event>
<event>
 7      1 +1.2618638e+02 1.73523600e+02 7.54677100e-03 1.13461400e-01
       21 -1    0    0  506  502 +0.0000000000e+00 +0.0000000000e+00 +1.9119271928e+02 1.9119271928e+02 0.0000000000e+00 0.0000e+00 1.0000e+00
       21 -1    0    0  501  503 -0.0000000000e+00 -0.0000000000e+00 -1.3383987252e+03 1.3383987252e+03 0.0000000000e+00 0.0000e+00 -1.0000e+00
        6  1    1    2  501    0 -9.5747079810e+01 -7.8863381585e+01 -3.7959632528e+02 4.3521179489e+02 1.7300000000e+02 0.0000e+00 -1.0000e+00
       -6  1    1    2    0  505 -5.0328541962e+01 -4.1932989583e+01 -8.0241627510e+02 8.2346354886e+02 1.7300000000e+02 0.0000e+00 -1.0000e+00
       21  1    1    2  504  503 +3.3283746816e+01 +2.2582342560e+01 -2.7696314130e+01 4.8834985553e+01 0.0000000000e+00 0.0000e+00 1.0000e+00
       21  1    1    2  505  502 +1.1413812015e+02 +7.9059498813e+00 +4.0207885470e+00 1.1448223118e+02 0.0000000000e+00 0.0000e+00 1.0000e+00
       21  1    1    2  506  504 -1.3462451906e+00 +9.0308078727e+01 +5.8482120084e+01 1.0759888396e+02 0.0000000000e+00 0.0000e+00 1.0000e+00
<mgrwt>
<rscale>  5 0.17352359E+03</rscale>
<asrwt>0</asrwt>
<pdfrwt beam="1">  1       21 0.29414264E-01 0.17352359E+03</pdfrwt>
<pdfrwt beam="2">  1       21 0.20590750E+00 0.17352359E+03</pdfrwt>
<totfact> 0.13937152E+03</totfact>
</mgrwt>
</event>
<event>
 7      1 +1.2618638e+02 2.57917500e+02 7.54677100e-03 1.10412600e-01
       21 -1    0    0  505  502 +0.0000000000e+00 +0.0000000000e+00 +2.4525561996e+02 2.4525561996e+02 0.0000000000e+00 0.0000e+00 1.0000e+00
       21 -1    0    0  501  503 -0.0000000000e+00 -0.0000000000e+00 -6.1694384478e+02 6.1694384478e+02 0.0000000000e+00 0.0000e+00 -1.0000e+00
        6  1    1    2  501    0 -3.6146735343e+01 +1.8674294783e+02 -3.5670734412e+02 4.3971427585e+02 1.7300000000e+02 0.0000e+00 -1.0000e+00
       -6  1    1    2    0  504 +1.1603106349e+02 -1.6918815308e+02 +8.8220498347e+01 2.8248839829e+02 1.7300000000e+02 0.0000e+00 1.0000e+00
       21  1    1    2  504  502 -3.4234701701e+01 -2.2903928572e+00 -1.2320608972e+01 3.6456249196e+01 0.0000000000e+00 0.0000e+00 -1.0000e+00
       21  1    1    2  505  506 -2.7918339421e+01 -3.7433736619e+00 -5.7443513552e+01 6.3978150736e+01 0.0000000000e+00 0.0000e+00 -1.0000e+00
       21  1    1    2  506  503 -1.7731287026e+01 -1.1521028231e+01 -3.3437256533e+01 3.9562390671e+01 0.0000000000e+00 0.0000e+00 -1.0000e+00
<mgrwt>
<rscale>  5 0.25791751E+03</rscale>
<asrwt>0</asrwt>
<pdfrwt beam="1">  1       21 0.37731634E-01 0.25791751E+03</pdfrwt>
<pdfrwt beam="2">  1       21 0.94914437E-01 0.25791751E+03</pdfrwt>
<totfact> 0.60161765E+03</totfact>
</mgrwt>
</event>
<event>
 7      1 +1.2618638e+02 2.95828800e+02 7.54677100e-03 1.17127400e-01
       21 -1    0    0  505  502 +0.0000000000e+00 +0.0000000000e+00 +1.1253831729e+03 1.1253831729e+03 0.0000000000e+00 0.0000e+00 1.0000e+00
       21 -1    0    0  501  503 -0.0000000000e+00 -0.0000000000e+00 -4.4156988551e+02 4.4156988551e+02 0.0000000000e+00 0.0000e+00 1.0000e+00
        6  1    1    2  501    0 +1.0790249229e+02 +2.6677835696e+02 -8.2480157867e+01 3.4575369272e+02 1.7300000000e+02 0.0000e+00 -1.0000e+00
       -6  1    1    2    0  502 -1.8437383791e+02 -1.5091735778e+02 +9.4338565082e+02 9.8826881321e+02 1.7300000000e+02 0.0000e+00 1.0000e+00
       21  1    1    2  504  506 +9.7654852656e+00 -4.4094982981e+01 -5.5731287909e+01 7.1733595188e+01 0.0000000000e+00 0.0000e+00 1.0000e+00
       21  1    1    2  505  504 +3.5826811252e+01 -4.1955433174e+01 -9.7662067817e+01 1.1216816958e+02 0.0000000000e+00 0.0000e+00 1.0000e+00
       21  1    1    2  506  503 +3.0879049110e+01 -2.9810583024e+01 -2.3698849889e+01 4.9028787669e+01 0.0000000000e+00 0.0000e+00 1.0000e+00
<mgrwt>
<rscale>  5 0.29582877E+03</rscale>
<asrwt>0</asrwt>
<pdfrwt beam="1">  1       21 0.17313587E+00 0.29582877E+03</pdfrwt>
<pdfrwt beam="2">  1       21 0.67933829E-01 0.29582877E+03</pdfrwt>
<totfact> 0.36306396E+02</totfact>
</mgrwt>
</event>
<event>
 7      1 +1.2618638e+02 3.15170800e+02 7.54677100e-03 1.06502400e-01
       21 -1    0    0  504  502 +0.0000000000e+00 +0.0000000000e+00 +1.1536585158e+02 1.1536585158e+02 0.0000000000e+00 0.0000e+00 -1.0000e+00
       21 -1    0    0  502  503 -0.0000000000e+00 -0.0000000000e+00 -1.5127390379e+03 1.5127390379e+03 0.0000000000e+00 0.0000e+00 -1.0000e+00
        6  1    1    2  501    0 -3.1039564892e+02 +4.0085895897e+01 -5.9748093280e+02 6.9632234129e+02 1.7300000000e+02 0.0000e+00 -1.0000e+00
       -6  1    1    2    0  505 +2.2178602223e+02 +2.2192476605e+01 -6.1054895852e+02 6.7259242965e+02 1.7300000000e+02 0.0000e+00 -1.0000e+00
       21  1    1    2  504  501 +4.6502008242e+01 -5.9120319695e+01 -1.9695463156e+01 7.7753200836e+01 0.0000000000e+00 0.0000e+00 1.0000e+00
       21  1    1    2  505  506 +3.5659505748e+01 +1.7884140688e+01 -8.3769999840e+01 9.2783919466e+01 0.0000000000e+00 0.0000e+00 -1.0000e+00
       21  1    1    2  506  503 +6.4481127022e+00 -2.1042193495e+01 -8.5877832008e+01 8.8652998229e+01 0.0000000000e+00 0.0000e+00 1.0000e+00
<mgrwt>
<rscale>  5 0.31517083E+03</rscale>
<asrwt>0</asrwt>
<pdfrwt beam="1">  1       21 0.17748592E-01 0.31517083E+03</pdfrwt>
<pdfrwt beam="2">  1       21 0.23272909E+00 0.31517083E+03</pdfrwt>
<totfact> 0.21859903E+03</totfact>
</mgrwt>
</event>
<event>
 7      1 +1.2618638e+02 2.49717900e+02 7.54677100e-03 1.17191400e-01
       21 -1    0    0  504  502 +0.0000000000e+00 +0.0000000000e+00 +1.3186572117e+03 1.3186572117e+03 0.0000000000e+00 0.0000e+00 1.0000e+00
       21 -1    0    0  501  503 -0.0000000000e+00 -0.0000000000e+00 -1.9002144351e+02 1.9002144351e+02 0.0000000000e+00 0.0000e+00 1.0000e+00
        6  1    1    2  501    0 +1.1542419225e+02 +2.7937133787e+02 +3.7275507435e+02 5.1014354258e+02 1.7300000000e+02 0.0000e+00 1.0000e+00
       -6  1    1    2    0  505 -1.2039527649e+02 -7.4859732045e+01 +3.7423792984e+02 4.3598397931e+02 1.7300000000e+02 0.0000e+00 1.0000e+00
       21  1    1    2  504  506 +2.8484818985e+01 -1.0873859227e+01 +2.5810013687e+02 2.5989479868e+02 0.0000000000e+00 0.0000e+00 -1.0000e+00
       21  1    1    2  505  502 -3.7831619546e+01 -1.7849949783e+02 +1.7147325552e+02 2.5039245101e+02 0.0000000000e+00 0.0000e+00 1.0000e+00
       21  1    1    2  506  503 +1.4317884800e+01 -1.5138248776e+01 -4.7930628358e+01 5.2263883667e+01 0.0000000000e+00 0.0000e+00 -1.0000e+00
<mgrwt>
<rscale>  5 0.24971788E+03</rscale>
<asrwt>0</asrwt>
<pdfrwt beam="1">  1       21 0.20287033E+00 0.24971788E+03</pdfrwt>
<pdfrwt beam="2">  1       21 0.29234069E-01 0.24971788E+03</pdfrwt>
<totfact> 0.13645454E+03</totfact>
</mgrwt>
</event>
<event>
 7      1 +1.2618638e+02 3.56715000e+02 7.54677100e-03 1.10719400e-01
       21 -1    0    0  505  502 +0.0000000000e+00 +0.0000000000e+00 +1.0544316281e+03 1.0544316281e+03 0.0000000000e+00 0.0000e+00 -1.0000e+00
       21 -1    0    0  506  503 -0.0000000000e+00 -0.0000000000e+00 -6.1828429527e+02 6.1828429527e+02 0.0000000000e+00 0.0000e+00 -1.0000e+00
        6  1    1    2  501    0 -3.2900537262e+01 +1.0195407136e+01 +3.6565901546e+02 4.0598264405e+02 1.7300000000e+02 0.0000e+00 1.0000e+00
       -6  1    1    2    0  504 +1.1455743171e+02 -3.1226877306e+02 -4.7745583610e+02 6.0706529073e+02 1.7300000000e+02 0.0000e+00 -1.0000e+00
       21  1    1    2  504  503 -4.5129645832e+01 +2.2596136391e+02 +2.1261140360e+02 3.1352644522e+02 0.0000000000e+00 0.0000e+00 -1.0000e+00
       21  1    1    2  505  501 -2.5478185769e+01 +5.7325914231e+01 +2.2008177553e+02 2.2884795457e+02 0.0000000000e+00 0.0000e+00 -1.0000e+00
       21  1    1    2  506  502 -1.1049062851e+01 +1.8786087787e+01 +1.1525097433e+02 1.1729358878e+02 0.0000000000e+00 0.0000e+00 1.0000e+00
<mgrwt>
<rscale>  5 0.30392695E+03</rscale>
<asrwt>0</asrwt>
<pdfrwt beam="1">  1       21 0.16222025E+00 0.35671503E+03</pdfrwt>
<pdfrwt beam="2">  1       21 0.95120661E-01 0.35671503E+03</pdfrwt>
<totfact> 0.19243824E+02</totfact>
</mgrwt>
</event>
<event>
 7      1 +1.2618638e+02 2.03740600e+02 7.54677100e-03 1.11751800e-01
       21 -1    0    0  505  502 +0.0000000000e+00 +0.0000000000e+00 +1.8062739714e+03 1.8062739714e+03 0.0000000000e+00 0.0000e+00 1.0000e+00
       21 -1    0    0  506  503 -0.0000000000e+00 -0.0000000000e+00 -1.1108589126e+02 1.1108589126e+02 0.0000000000e+00 0.0000e+00 -1.0000e+00
        6  1    1    2  501    0 -1.5534576156e+02 +4.9060292074e+01 +2.1094607064e+02 3.1775220316e+02 1.7300000000e+02 0.0000e+00 -1.0000e+00
       -6  1    1    2    0  502 -9.9455525002e+00 -1.1628686107e+02 +1.2278853490e+03 1.2454930664e+03 1.7300000000e+02 0.0000e+00 1.0000e+00
       21  1    1    2  504  501 +1.1378361622e+02 +6.9436137990e+01 +1.9051143417e+02 2.3251386008e+02 0.0000000000e+00 0.0000e+00 1.0000e+00
       21  1    1    2  505  503 +2.2645274075e+01 +1.9064237031e+01 +7.8248550367e+01 8.3660559442e+01 0.0000000000e+00 0.0000e+00 -1.0000e+00
       21  1    1    2  506  504 +2.8862423769e+01 -2.1273806028e+01 -1.2403324023e+01 3.7940173636e+01 0.0000000000e+00 0.0000e+00 1.0000e+00
<mgrwt>
<rscale>  5 0.20374057E+03</rscale>
<asrwt>0</asrwt>
<pdfrwt beam="1">  1       21 0.27788828E+00 0.20374057E+03</pdfrwt>
<pdfrwt beam="2">  1       21 0.17090138E-01 0.20374057E+03</pdfrwt>
<totfact> 0.13948076E+03</totfact>
</mgrwt>
</event>
<event>
 7      1 +1.2618638e+02 1.80173200e+02 7.54677100e-03 1.10719400e-01
       21 -1    0    0  505  502 +0.0000000000e+00 +0.0000000000e+00 +1.1462065978e+03 1.1462065978e+03 0.0000000000e+00 0.0000e+00 -1.0000e+00
       21 -1    0    0  506  503 -0.0000000000e+00 -0.0000000000e+00 -6.9882256746e+01 6.9882256746e+01 0.0000000000e+00 0.0000e+00 -1.0000e+00
        6  1    1    2  501    0 +3.8843436212e+01 -2.5527037772e+01 +4.9157868787e+02 5.2320077271e+02 1.7300000000e+02 0.0000e+00 1.0000e+00
       -6  1    1    2    0  504 -5.7322575215e+00 +6.4746668025e+01 +4.8832255425e+02 5.2212345934e+02 1.7300000000e+02 0.0000e+00 -1.0000e+00
       21  1    1    2  504  503 +4.1506283972e+00 -1.9609882345e+01 -2.8392011836e+01 3.4754590168e+01 0.0000000000e+00 0.0000e+00 -1.0000e+00
       21  1    1    2  505  501 -1.1883793668e+01 -2.3746574280e+01 +8.0603816400e+01 8.4865184618e+01 0.0000000000e+00 0.0000e+00 1.0000e+00
       21  1    1    2  506  502 -2.5378013420e+01 +4.1368263716e+00 +4.4211294323e+01 5.1144847671e+01 0.0000000000e+00 0.0000e+00 1.0000e+00
<mgrwt>
<rscale>  5 0.18017316E+03</rscale>
<asrwt>0</asrwt>
<pdfrwt beam="1">  1       21 0.17633946E+00 0.18017316E+03</pdfrwt>
<pdfrwt beam="2">  1       21 0.10751117E-01 0.18017316E+03</pdfrwt>
<totfact> 0.13892436E+04</totfact>
</mgrwt>
</event>
<event>
 7      1 +1.2618638e+02 4.39307300e+02 7.54677100e-03 1.11920600e-01
       21 -1    0    0  506  502 +0.0000000000e+00 +0.0000000000e+00 +6.8729918865e+02 6.8729918865e+02 0.0000000000e+00 0.0000e+00 -1.0000e+00
       21 -1    0    0  505  503 -0.0000000000e+00 -0.0000000000e+00 -2.4367213382e+02 2.4367213382e+02 0.0000000000e+00 0.0000e+00 -1.0000e+00
        6  1    1    2  501    0 +3.1367042693e+01 +5.5102242322e+00 +7.1200108834e+01 1.8977014896e+02 1.7300000000e+02 0.0000e+00 1.0000e+00
       -6  1    1    2    0  504 +1.9840052938e+02 +2.2498862104e+01 -5.6550269812e+00 2.6425356797e+02 1.7300000000e+02 0.0000e+00 -1.0000e+00
       21  1    1    2  504  502 -1.0127321930e+02 +2.4823066403e+01 +1.9625545939e+02 2.2223558427e+02 0.0000000000e+00 0.0000e+00 -1.0000e+00
       21  1    1    2  505  501 -1.0724602235e+02 -3.3278045257e+01 +1.9337358918e+02 2.2361234894e+02 0.0000000000e+00 0.0000e+00 1.0000e+00
       21  1    1    2  506  503 -2.1248330424e+01 -1.9554107483e+01 -1.1547075591e+01 3.1099672345e+01 0.0000000000e+00 0.0000e+00 1.0000e+00
<mgrwt>
<rscale>  5 0.43930727E+03</rscale>
<asrwt>0</asrwt>
<pdfrwt beam="1">  1       21 0.10573834E+00 0.43930727E+03</pdfrwt>
<pdfrwt beam="2">  1       21 0.37488021E-01 0.43930727E+03</pdfrwt>
<totfact> 0.43304583E+03</totfact>
</mgrwt>
</event>
<event>
 7      1 +1.2618638e+02 2.79803200e+02 7.54677100e-03 1.08953100e-01
       21 -1    0    0  506  502 +0.0000000000e+00 +0.0000000000e+00 +9.5712010099e+02 9.5712010099e+02 0.0000000000e+00 0.0000e+00 1.0000e+00
       21 -1    0    0  501  503 -0.0000000000e+00 -0.0000000000e+00 -5.2396534383e+02 5.2396534383e+02 0.0000000000e+00 0.0000e+00 1.0000e+00
        6  1    1    2  501    0 -2.1592020582e+02 +4.3788266365e+01 +6.4446670622e+02 7.0271280263e+02 1.7300000000e+02 0.0000e+00 1.0000e+00
       -6  1    1    2    0  502 +2.4256858426e+02 -4.9423559545e+01 +1.6792386482e+02 3.4555698616e+02 1.7300000000e+02 0.0000e+00 1.0000e+00
       21  1    1    2  504  505 -2.0891728901e+01 +1.3306560571e+01 -1.8277901938e+02 1.8444971893e+02 0.0000000000e+00 0.0000e+00 1.0000e+00
       21  1    1    2  505  503 -2.5060040485e+01 -2.1616773315e+01 -2.1540558514e+02 2.1793314715e+02 0.0000000000e+00 0.0000e+00 -1.0000e+00
       21  1    1    2  506  504 +1.9303390942e+01 +1.3945505924e+01 +1.8948790637e+01 3.0432789947e+01 0.0000000000e+00 0.0000e+00 1.0000e+00
<mgrwt>
<rscale>  5 0.27980315E+03</rscale>
<asrwt>0</asrwt>
<pdfrwt beam="1">  1       21 0.14724925E+00 0.27980315E+03</pdfrwt>
<pdfrwt beam="2">  1       21 0.80610053E-01 0.27980315E+03</pdfrwt>
<totfact> 0.38960438E+02</totfact>
</mgrwt>
</event>
<event>
 7      1 +1.2618638e+02 2.38091700e+02 7.54677100e-03 1.13461400e-01
       21 -1    0    0  504  502 +0.0000000000e+00 +0.0000000000e+00 +1.5426202574e+03 1.5426202574e+03 0.0000000000e+00 0.0000e+00 1.0000e+00
       21 -1    0    0  501  503 -0.0000000000e+00 -0.0000000000e+00 -2.8538180164e+02 2.8538180164e+02 0.0000000000e+00 0.0000e+00 -1.0000e+00
        6  1    1    2  501    0 +1.6584723461e+02 -1.5246215650e+02 +1.2409096368e+02 3.0996383928e+02 1.7300000000e+02 0.0000e+00 -1.0000e+00
       -6  1    1    2    0  505 -1.6237302206e+02 -7.5551548724e+01 -7.5335435621e+01 2.6014892402e+02 1.7300000000e+02 0.0000e+00 -1.0000e+00
       21  1    1    2  504  506 +6.6374184857e+01 +1.2646262465e+02 +9.5105938980e+02 9.6172360414e+02 0.0000000000e+00 0.0000e+00 1.0000e+00
       21  1    1    2  505  502 +1.0761858604e+01 +4.1064229416e+01 +1.0688875602e+02 1.1500997653e+02 0.0000000000e+00 0.0000e+00 1.0000e+00
       21  1    1    2  506  503 -8.0610256012e+01 +6.0486851163e+01 +1.5053478187e+02 1.8115571503e+02 0.0000000000e+00 0.0000e+00 1.0000e+00
<mgrwt>
<rscale>  5 0.23809168E+03</rscale>
<asrwt>0</asrwt>
<pdfrwt beam="1">  1       21 0.23732619E+00 0.23809168E+03</pdfrwt>
<pdfrwt beam="2">  1       21 0.43904894E-01 0.23809168E+03</pdfrwt>
<totfact> 0.37283607E+02</totfact>
</mgrwt>
</event>
<event>
 7      1 +1.2618638e+02 1.80999000e+02 7.54677100e-03 1.17298600e-01
       21 -1    0    0  504  502 +0.0000000000e+00 +0.0000000000e+00 +1.5443286019e+03 1.5443286019e+03 0.0000000000e+00 0.0000e+00 1.0000e+00
       21 -1    0    0  501  503 -0.0000000000e+00 -0.0000000000e+00 -1.8859292289e+02 1.8859292289e+02 0.0000000000e+00 0.0000e+00 1.0000e+00
        6  1    1    2  501    0 -2.4707492414e+01 +2.2236260775e+01 +8.8142973339e+02 8.9886166143e+02 1.7300000000e+02 0.0000e+00 1.0000e+00
       -6  1    1    2    0  506 +6.7852455106e+01 -5.2047639204e+01 +5.5647748866e+02 5.8898990466e+02 1.7300000000e+02 0.0000e+00 1.0000e+00
       21  1    1    2  504  505 +1.1967936125e+01 -2.3325781058e+01 -2.9313971729e+01 3.9327248767e+01 0.0000000000e+00 0.0000e+00 1.0000e+00
       21  1    1    2  505  503 -1.5082263815e+01 -1.6511312760e+01 +6.1812526242e+01 6.5733450627e+01 0.0000000000e+00 0.0000e+00 -1.0000e+00
       21  1    1    2  506  502 -4.0030635002e+01 +6.9648472248e+01 -1.1467009754e+02 1.4000925932e+02 0.0000000000e+00 0.0000e+00 1.0000e+00
<mgrwt>
<rscale>  5 0.18099898E+03</rscale>
<asrwt>0</asrwt>
<pdfrwt beam="1">  1       21 0.23758901E+00 0.18099898E+03</pdfrwt>
<pdfrwt beam="2">  1       21 0.29014297E-01 0.18099898E+03</pdfrwt>
<totfact> 0.90874836E+02</totfact>
</mgrwt>
</event>
<event>
 7      1 +1.2618638e+02 1.98538100e+02 7.54677100e-03 1.17191400e-01
       21 -1    0    0  504  502 +0.0000000000e+00 +0.0000000000e+00 +1.2665214464e+03 1.2665214464e+03 0.0000000000e+00 0.0000e+00 1.0000e+00
       21 -1    0    0  501  503 -0.0000000000e+00 -0.0000000000e+00 -1.5776115047e+02 1.5776115047e+02 0.0000000000e+00 0.0000e+00 -1.0000e+00
        6  1    1    2  501    0 +1.2420515628e+01 -4.5846119511e+01 +8.5306904824e+01 1.9865146336e+02 1.7300000000e+02 0.0000e+00 -1.0000e+00
       -6  1    1    2    0  505 +3.2974719336e+00 +1.5795994718e+02 +1.0443876935e+02 2.5651252362e+02 1.7300000000e+02 0.0000e+00 -1.0000e+00
       21  1    1    2  504  506 -1.4510871526e+01 -3.7293766772e+01 +2.7790295854e+02 2.8076938009e+02 0.0000000000e+00 0.0000e+00 1.0000e+00
       21  1    1    2  505  502 -1.1463001752e+01 -5.3438606522e+01 +6.5734377567e+02 6.5961194992e+02 0.0000000000e+00 0.0000e+00 1.0000e+00
       21  1    1    2  506  503 +1.0255885716e+01 -2.1381454370e+01 -1.6232112414e+01 2.8737279903e+01 0.0000000000e+00 0.0000e+00 -1.0000e+00
<mgrwt>
<rscale>  5 0.19853809E+03</rscale>
<asrwt>0</asrwt>
<pdfrwt beam="1">  1       21 0.19484945E+00 0.19853809E+03</pdfrwt>
<pdfrwt beam="2">  1       21 0.24270947E-01 0.19853809E+03</pdfrwt>
<totfact> 0.23095106E+03</totfact>
</mgrwt>
</event>
<event>
 7      1 +1.2618638e+02 1.87610900e+02 7.54677100e-03 1.13461400e-01
       21 -1    0    0  506  502 +0.0000000000e+00 +0.0000000000e+00 +8.1006344112e+02 8.1006344112e+02 0.0000000000e+00 0.0000e+00 1.0000e+00
       21 -1    0    0  501  503 -0.0000000000e+00 -0.0000000000e+00 -1.2222747505e+03 1.2222747505e+03 0.0000000000e+00 0.0000e+00 1.0000e+00
        6  1    1    2  501    0 +1.6225578499e+02 +7.6715538699e-01 -2.7340121019e+02 3.6194578326e+02 1.7300000000e+02 0.0000e+00 -1.0000e+00
       -6  1    1    2    0  505 -2.6090207566e+01 +6.3565137516e+01 -8.7650559315e+02 8.9605372632e+02 1.7300000000e+02 0.0000e+00 1.0000e+00
       21  1    1    2  504  503 -5.4824307395e+01 -2.5587790697e+01 +1.8331023807e+02 1.9303648125e+02 0.0000000000e+00 0.0000e+00 -1.0000e+00
       21  1    1    2  505  502 -4.1439454017e+01 +2.6486841198e+01 +4.6468908552e+01 6.7661958055e+01 0.0000000000e+00 0.0000e+00 1.0000e+00
       21  1    1    2  506  504 -3.9901816007e+01 -6.5231343404e+01 +5.0791634732e+02 5.1364024274e+02 0.0000000000e+00 0.0000e+00 1.0000e+00
<mgrwt>
<rscale>  5 0.18761090E+03</rscale>
<asrwt>0</asrwt>
<pdfrwt beam="1">  1       21 0.12462515E+00 0.18761090E+03</pdfrwt>
<pdfrwt beam="2">  1       21 0.18804227E+00 0.18761090E+03</pdfrwt>
<totfact> 0.77818903E+01</totfact>
</mgrwt>
</event>
<event>
 7      1 +1.2618638e+02 2.14027800e+02 7.54677100e-03 1.11751800e-01
       21 -1    0    0  505  502 +0.0000000000e+00 +0.0000000000e+00 +5.2814179059e+02 5.2814179059e+02 0.0000000000e+00 0.0000e+00 -1.0000e+00
       21 -1    0    0  501  503 -0.0000000000e+00 -0.0000000000e+00 -1.8435742772e+03 1.8435742772e+03 0.0000000000e+00 0.0000e+00 1.0000e+00
        6  1    1    2  501    0 -7.5780375739e+01 +1.7630747354e+01 -3.1216913207e+02 3.6528355509e+02 1.7300000000e+02 0.0000e+00 -1.0000e+00
       -6  1    1    2    0  502 +1.2293151474e+02 +4.2968689097e+01 +4.6765364008e+02 5.1535171741e+02 1.7300000000e+02 0.0000e+00 -1.0000e+00
       21  1    1    2  504  506 -2.9427673748e+01 -3.8247183936e+00 -2.7505748884e+01 4.0462114066e+01 0.0000000000e+00 0.0000e+00 -1.0000e+00
       21  1    1    2  505  504 -2.8978495642e+01 -1.0044446368e+01 -7.0695470545e+01 7.7061622538e+01 0.0000000000e+00 0.0000e+00 -1.0000e+00
       21  1    1    2  506  503 +1.1255030393e+01 -4.6730271690e+01 -1.3727157752e+03 1.3735570587e+03 0.0000000000e+00 0.0000e+00 1.0000e+00
<mgrwt>
<rscale>  5 0.21402778E+03</rscale>
<asrwt>0</asrwt>
<pdfrwt beam="1">  1       21 0.81252584E-01 0.21402778E+03</pdfrwt>
<pdfrwt beam="2">  1       21 0.28362681E+00 0.21402778E+03</pdfrwt>
<totfact> 0.54407954E+01</totfact>
</mgrwt>
</event>
<event>
 7      1 +1.2618638e+02 2.40306100e+02 7.54677100e-03 1.12385500e-01
       21 -1    0    0  506  502 +0.0000000000e+00 +0.0000000000e+00 +1.9271424560e+03 1.9271424560e+03 0.0000000000e+00 0.0000e+00 -1.0000e+00
       21 -1    0    0  504  503 -0.0000000000e+00 -0.0000000000e+00 -9.7400072262e+01 9.7400072262e+01 0.0000000000e+00 0.0000e+00 -1.0000e+00
        6  1    1    2  501    0 +4.4856700370e+01 +1.9325879185e+02 +7.3847028201e+02 7.8398242430e+02 1.7300000000e+02 0.0000e+00 -1.0000e+00
       -6  1    1    2    0  503 -8.4830110003e+01 -1.0102243737e+02 +2.8173048543e+02 3.5595329305e+02 1.7300000000e+02 0.0000e+00 -1.0000e+00
       21  1    1    2  504  502 -7.6086622103e+00 -2.8282737058e+01 +2.3520711194e+01 3.7563663442e+01 0.0000000000e+00 0.0000e+00 -1.0000e+00
       21  1    1    2  505  501 +2.8331907489e+01 -4.5394604779e+01 -6.6493677933e+00 5.3921991961e+01 0.0000000000e+00 0.0000e+00 -1.0000e+00
       21  1    1    2  506  505 +1.9250164354e+01 -1.8559012647e+01 +7.9267027285e+02 7.9312115546e+02 0.0000000000e+00 0.0000e+00 -1.0000e+00
<mgrwt>
<rscale>  5 0.24030613E+03</rscale>
<asrwt>0</asrwt>
<pdfrwt beam="1">  1       21 0.29648343E+00 0.24030613E+03</pdfrwt>
<pdfrwt beam="2">  1       21 0.14984628E-01 0.24030613E+03</pdfrwt>
<totfact> 0.13286996E+03</totfact>
</mgrwt>
</event>
<event>
 7      1 +1.2618638e+02 1.73202900e+02 7.54677100e-03 1.17407200e-01
       21 -1    0    0  505  502 +0.0000000000e+00 +0.0000000000e+00 +1.6866314895e+02 1.6866314895e+02 0.0000000000e+00 0.0000e+00 1.0000e+00
       21 -1    0    0  501  503 -0.0000000000e+00 -0.0000000000e+00 -1.2924241952e+03 1.2924241952e+03 0.0000000000e+00 0.0000e+00 1.0000e+00
        6  1    1    2  501    0 +2.0344237421e+01 +1.1140231855e+02 -2.6711363511e+02 3.3779144252e+02 1.7300000000e+02 0.0000e+00 1.0000e+00
       -6  1    1    2    0  506 +2.3712246667e+00 +1.0316883246e+02 -2.2834481339e+02 3.0449923563e+02 1.7300000000e+02 0.0000e+00 1.0000e+00
       21  1    1    2  504  502 -2.2533479928e+01 +1.1370386194e+01 +4.9978281496e+01 5.5989927854e+01 0.0000000000e+00 0.0000e+00 -1.0000e+00
       21  1    1    2  505  503 +3.1230139388e+01 -9.4986998399e+01 -3.5553026303e+01 1.0612195414e+02 0.0000000000e+00 0.0000e+00 1.0000e+00
       21  1    1    2  506  504 -3.1412121548e+01 -1.3095453881e+02 -6.4272785293e+02 6.5668478400e+02 0.0000000000e+00 0.0000e+00 1.0000e+00
<mgrwt>
<rscale>  5 0.17320291E+03</rscale>
<asrwt>0</asrwt>
<pdfrwt beam="1">  1       21 0.25948177E-01 0.17320291E+03</pdfrwt>
<pdfrwt beam="2">  1       21 0.19883449E+00 0.17320291E+03</pdfrwt>
<totfact> 0.19681439E+03</totfact>
</mgrwt>
</event>
<event>
 7      1 +1.2618638e+02 2.70930100e+02 7.54677100e-03 1.12385500e-01
       21 -1    0    0  506  502 +0.0000000000e+00 +0.0000000000e+00 +7.2011879425e+02 7.2011879425e+02 0.0000000000e+00 0.0000e+00 -1.0000e+00
       21 -1    0    0  502  503 -0.0000000000e+00 -0.0000000000e+00 -9.1168444062e+02 9.1168444062e+02 0.0000000000e+00 0.0000e+00 1.0000e+00
        6  1    1    2  501    0 -1.6986353001e+02 -8.9613967919e+00 +1.4237645037e+02 2.8130762357e+02 1.7300000000e+02 0.0000e+00 -1.0000e+00
       -6  1    1    2    0  504 +2.7926519164e+02 -1.9590822799e+02 -1.1663868118e+02 3.9987831024e+02 1.7300000000e+02 0.0000e+00 1.0000e+00
       21  1    1    2  504  503 +1.3840001892e+01 +8.8700784914e+01 -7.7091876150e+01 1.1833229595e+02 0.0000000000e+00 0.0000e+00 -1.0000e+00
       21  1    1    2  505  501 -9.6954210048e+01 +1.0993937736e+02 -4.7464396235e+02 4.9676319966e+02 0.0000000000e+00 0.0000e+00 1.0000e+00
       21  1    1    2  506  505 -2.6287453479e+01 +6.2294625092e+00 +3.3443242294e+02 3.3552180544e+02 0.0000000000e+00 0.0000e+00 -1.0000e+00
<mgrwt>
<rscale>  5 0.27093010E+03</rscale>
<asrwt>0</asrwt>
<pdfrwt beam="1">  1       21 0.11078751E+00 0.27093010E+03</pdfrwt>
<pdfrwt beam="2">  1       21 0.14025915E+00 0.27093010E+03</pdfrwt>
<totfact> 0.21028566E+02</totfact>
</mgrwt>
</event>
<event>
 7      1 +1.2618638e+02 3.31985800e+02 7.54677100e-03 1.10719400e-01
       21 -1    0    0  505  502 +0.0000000000e+00 +0.0000000000e+00 +6.4800764937e+02 6.4800764937e+02 0.0000000000e+00 0.0000e+00 -1.0000e+00
       21 -1    0    0  506  503 -0.0000000000e+00 -0.0000000000e+00 -1.5125489536e+03 1.5125489536e+03 0.0000000000e+00 0.0000e+00 1.0000e+00
        6  1    1    2  501    0 -2.0609047115e+02 +1.9872057641e+02 -1.2226890162e+03 1.2676200456e+03 1.7300000000e+02 0.0000e+00 1.0000e+00
       -6  1    1    2    0  504 +1.1979820232e+02 -3.3694947225e+02 +1.0790247907e+02 4.1165337496e+02 1.7300000000e+02 0.0000e+00 -1.0000e+00
       21  1    1    2  504  503 +2.9909711873e+01 +1.5561931293e+01 -9.8041105039e+01 1.0367652988e+02 0.0000000000e+00 0.0000e+00 1.0000e+00
       21  1    1    2  505  501 +9.9912645231e-01 +6.1929682229e+01 +1.2134766675e+02 1.3624074288e+02 0.0000000000e+00 0.0000e+00 1.0000e+00
       21  1    1    2  506  502 +5.5383430502e+01 +6.0737282322e+01 +2.2693867119e+02 2.4136590960e+02 0.0000000000e+00 0.0000e+00 1.0000e+00
<mgrwt>
<rscale>  5 0.33198577E+03</rscale>
<asrwt>0</asrwt>
<pdfrwt beam="1">  1       21 0.99693486E-01 0.33198577E+03</pdfrwt>
<pdfrwt beam="2">  1       21 0.23269983E+00 0.33198577E+03</pdfrwt>
<totfact> 0.59184976E+01</totfact>
</mgrwt>
</event>
<event>
 7      1 +1.2618638e+02 1.85693800e+02 7.54677100e-03 1.17191400e-01
       21 -1    0    0  505  502 +0.0000000000e+00 +0.0000000000e+00 +1.0025164186e+02 1.0025164186e+02 0.0000000000e+00 0.0000e+00 1.0000e+00
       21 -1    0    0  501  503 -0.0000000000e+00 -0.0000000000e+00 -1.6923324148e+03 1.6923324148e+03 0.0000000000e+00 0.0000e+00 1.0000e+00
        6  1    1    2  501    0 -7.7994672837e+01 +5.3887894914e+01 -4.8503820083e+02 5.2362021587e+02 1.7300000000e+02 0.0000e+00 1.0000e+00
       -6  1    1    2    0  502 -1.7552879007e+01 -6.7195363607e+01 -1.1156145045e+02 2.1725164597e+02 1.7300000000e+02 0.0000e+00 -1.0000e+00
       21  1    1    2  504  506 -2.0180289326e+01 +4.7374094369e+00 -1.1489726568e+01 2.3700230844e+01 0.0000000000e+00 0.0000e+00 -1.0000e+00
       21  1    1    2  505  504 -7.2507382432e+01 -9.7009466284e+00 -9.9324614498e+01 1.2335642633e+02 0.0000000000e+00 0.0000e+00 1.0000e+00
       21  1    1    2  506  503 +1.8823522360e+02 +1.8271005885e+01 -8.8466678058e+02 9.0465553760e+02 0.0000000000e+00 0.0000e+00 1.0000e+00
<mgrwt>
<rscale>  5 0.18569383E+03</rscale>
<asrwt>0</asrwt>
<pdfrwt beam="1">  1       21 0.15423331E-01 0.18569383E+03</pdfrwt>
<pdfrwt beam="2">  1       21 0.26035881E+00 0.18569383E+03</pdfrwt>
<totfact> 0.21742290E+03</totfact>
</mgrwt>
</event>
<event>
 7      1 +1.2618638e+02 1.88497100e+02 7.54677100e-03 1.17159500e-01
       21 -1    0    0  506  502 +0.0000000000e+00 +0.0000000000e+00 +1.7021790919e+02 1.7021790919e+02 0.0000000000e+00 0.0000e+00 -1.0000e+00
       21 -1    0    0  501  503 -0.0000000000e+00 -0.0000000000e+00 -8.8923718610e+02 8.8923718610e+02 0.0000000000e+00 0.0000e+00 -1.0000e+00
        6  1    1    2  501    0 -1.0562289803e+02 +7.1101222857e+01 -3.9562311206e+02 4.5017577376e+02 1.7300000000e+02 0.0000e+00 1.0000e+00
       -6  1    1    2    0  504 +2.9640128792e+01 +4.9631144530e+01 -1.0092108396e+02 2.0846067478e+02 1.7300000000e+02 0.0000e+00 -1.0000e+00
       21  1    1    2  504  505 +1.4046427471e+01 -3.3871439553e+01 -7.4665315099e+00 3.7420925094e+01 0.0000000000e+00 0.0000e+00 -1.0000e+00
       21  1    1    2  505  502 +2.6680045671e+01 -8.1984524350e+01 +4.7535197333e+01 9.8452435497e+01 0.0000000000e+00 0.0000e+00 -1.0000e+00
       21  1    1    2  506  503 +3.5256296098e+01 -4.8764034835e+00 -2.6254374670e+02 2.6494528616e+02 0.0000000000e+00 0.0000e+00 -1.0000e+00
<mgrwt>
<rscale>  5 0.18849713E+03</rscale>
<asrwt>0</asrwt>
<pdfrwt beam="1">  1       21 0.26187371E-01 0.18849713E+03</pdfrwt>
<pdfrwt beam="2">  1       21 0.13680572E+00 0.18849713E+03</pdfrwt>
<totfact> 0.52813701E+03</totfact>
</mgrwt>
</event>
<event>
 7      1 +1.2618638e+02 2.49628400e+02 7.54677100e-03 1.07499700e-01
       21 -1    0    0  505  502 +0.0000000000e+00 +0.0000000000e+00 +9.0812207725e+02 9.0812207725e+02 0.0000000000e+00 0.0000e+00 -1.0000e+00
       21 -1    0    0  501  503 -0.0000000000e+00 -0.0000000000e+00 -5.6843975783e+02 5.6843975783e+02 0.0000000000e+00 0.0000e+00 -1.0000e+00
        6  1    1    2  501    0 -8.0955869783e+01 +1.5965608678e+02 -5.7063810162e+01 2.5540007308e+02 1.7300000000e+02 0.0000e+00 -1.0000e+00
       -6  1    1    2    0  506 +4.4258627541e+01 -1.6741933152e+02 -2.0033308740e+02 3.1630745263e+02 1.7300000000e+02 0.0000e+00 -1.0000e+00
       21  1    1    2  504  503 +3.8252642373e+01 +1.5631930545e+01 -1.1746527455e+02 1.2452193633e+02 0.0000000000e+00 0.0000e+00 -1.0000e+00
       21  1    1    2  505  504 +1.1922006281e+01 -2.3507783679e+01 -2.7446983541e+01 3.8053738749e+01 0.0000000000e+00 0.0000e+00 -1.0000e+00
       21  1    1    2  506  502 -1.3477406412e+01 +1.5639097870e+01 +7.4199147507e+02 7.4227863430e+02 0.0000000000e+00 0.0000e+00 -1.0000e+00
<mgrwt>
<rscale>  5 0.24962838E+03</rscale>
<asrwt>0</asrwt>
<pdfrwt beam="1">  1       21 0.13971109E+00 0.24962838E+03</pdfrwt>
<pdfrwt beam="2">  1       21 0.87452271E-01 0.24962838E+03</pdfrwt>
<totfact> 0.38063380E+02</totfact>
</mgrwt>
</event>
<event>
 7      1 +1.2618638e+02 1.84892000e+02 7.54677100e-03 1.13461400e-01
       21 -1    0    0  504  502 +0.0000000000e+00 +0.0000000000e+00 +1.8258272617e+02 1.8258272617e+02 0.0000000000e+00 0.0000e+00 1.0000e+00
       21 -1    0    0  501  503 -0.0000000000e+00 -0.0000000000e+00 -9.0967152271e+02 9.0967152271e+02 0.0000000000e+00 0.0000e+00 1.0000e+00
        6  1    1    2  501    0 +4.1689826598e+01 -7.4019331555e+01 -9.9862046159e+01 2.1706757323e+02 1.7300000000e+02 0.0000e+00 -1.0000e+00
       -6  1    1    2    0  505 -3.2086742745e+01 +5.2132411112e+01 -6.9025952152e+02 7.1423704356e+02 1.7300000000e+02 0.0000e+00 -1.0000e+00
       21  1    1    2  504  506 -1.6047149831e+00 +2.6074963593e+01 +3.8267184436e+01 4.6334180053e+01 0.0000000000e+00 0.0000e+00 1.0000e+00
       21  1    1    2  505  502 -3.2987048730e+01 +4.5449174799e+01 +1.5669657540e+01 5.8303610876e+01 0.0000000000e+00 0.0000e+00 1.0000e+00
       21  1    1    2  506  503 +2.4988679860e+01 -4.9637217949e+01 +9.0959291623e+00 5.6311841154e+01 0.0000000000e+00 0.0000e+00 1.0000e+00
<mgrwt>
<rscale>  5 0.18489200E+03</rscale>
<asrwt>0</asrwt>
<pdfrwt beam="1">  1       21 0.28089651E-01 0.18489200E+03</pdfrwt>
<pdfrwt beam="2">  1       21 0.13994946E+00 0.18489200E+03</pdfrwt>
<totfact> 0.43657062E+03</totfact>
</mgrwt>
</event>
<event>
 7      1 +1.2618638e+02 2.23735900e+02 7.54677100e-03 1.17407200e-01
       21 -1    0    0  505  502 +0.0000000000e+00 +0.0000000000e+00 +1.0300644385e+03 1.0300644385e+03 0.0000000000e+00 0.0000e+00 -1.0000e+00
       21 -1    0    0  501  503 -0.0000000000e+00 -0.0000000000e+00 -1.7683294983e+02 1.7683294983e+02 0.0000000000e+00 0.0000e+00 -1.0000e+00
        6  1    1    2  501    0 +1.2752897771e+02 +5.6890143222e+00 +2.8783720826e+02 3.5927046009e+02 1.7300000000e+02 0.0000e+00 -1.0000e+00
       -6  1    1    2    0  506 -1.3252883618e+02 +2.5002590657e+01 -1.3490492976e+01 2.1977264470e+02 1.7300000000e+02 0.0000e+00 -1.0000e+00
       21  1    1    2  504  502 +2.2399381585e+01 -6.0203509783e+01 +5.6074262915e+02 5.6440986086e+02 0.0000000000e+00 0.0000e+00 -1.0000e+00
       21  1    1    2  505  503 -3.4614934809e+01 +1.5077840301e+01 +7.1251058288e+00 3.8422677067e+01 0.0000000000e+00 0.0000e+00 -1.0000e+00
       21  1    1    2  506  504 +1.7215411700e+01 +1.4434064503e+01 +1.1017038422e+01 2.5021745616e+01 0.0000000000e+00 0.0000e+00 1.0000e+00
<mgrwt>
<rscale>  5 0.22373590E+03</rscale>
<asrwt>0</asrwt>
<pdfrwt beam="1">  1       21 0.15847145E+00 0.22373590E+03</pdfrwt>
<pdfrwt beam="2">  1       21 0.27205070E-01 0.22373590E+03</pdfrwt>
<totfact> 0.32385169E+03</totfact>
</mgrwt>
</event>
<event>
 7      1 +1.2618638e+02 3.41927100e+02 7.54677100e-03 1.04014800e-01
       21 -1    0    0  504  502 +0.0000000000e+00 +0.0000000000e+00 +1.6056440234e+03 1.6056440234e+03 0.0000000000e+00 0.0000e+00 -1.0000e+00
       21 -1    0    0  506  503 -0.0000000000e+00 -0.0000000000e+00 -3.6950765004e+02 3.6950765004e+02 0.0000000000e+00 0.0000e+00 -1.0000e+00
        6  1    1    2  501    0 -6.7312153936e+01 -1.1326885294e+01 +3.0532786683e+01 1.8846876521e+02 1.7300000000e+02 0.0000e+00 -1.0000e+00
       -6  1    1    2    0  505 +3.3050225377e+02 -9.7237928727e+01 +1.9633289369e+01 3.8600702142e+02 1.7300000000e+02 0.0000e+00 -1.0000e+00
       21  1    1    2  504  503 -2.7275636842e+01 +1.2656354013e+01 +1.1256393705e+03 1.1260409122e+03 0.0000000000e+00 0.0000e+00 -1.0000e+00
       21  1    1    2  505  502 -3.6275077176e+01 +5.2138720701e+01 +1.6020958549e+01 6.5505713745e+01 0.0000000000e+00 0.0000e+00 -1.0000e+00
       21  1    1    2  506  501 -1.9963938582e+02 +4.3769739308e+01 +4.4309968293e+01 2.0912926084e+02 0.0000000000e+00 0.0000e+00 -1.0000e+00
<mgrwt>
<rscale>  5 0.29450161E+03</rscale>
<asrwt>0</asrwt>
<pdfrwt beam="1">  1       21 0.24702215E+00 0.34192712E+03</pdfrwt>
<pdfrwt beam="2">  1       21 0.56847332E-01 0.34192712E+03</pdfrwt>
<totfact> 0.17182209E+02</totfact>
</mgrwt>
</event>
<event>
 7      1 +1.2618638e+02 2.61439700e+02 7.54677100e-03 1.17298600e-01
       21 -1    0    0  501  502 +0.0000000000e+00 +0.0000000000e+00 +2.1067385429e+03 2.1067385429e+03 0.0000000000e+00 0.0000e+00 -1.0000e+00
       21 -1    0    0  505  503 -0.0000000000e+00 -0.0000000000e+00 -8.6660395206e+02 8.6660395206e+02 0.0000000000e+00 0.0000e+00 1.0000e+00
        6  1    1    2  501    0 -2.2403615607e+01 -1.8673175665e+02 +1.0979222302e+03 1.1272678894e+03 1.7300000000e+02 0.0000e+00 1.0000e+00
       -6  1    1    2    0  504 +1.3171712687e+02 +1.7528006755e+02 +8.3484031081e+02 8.8031803806e+02 1.7300000000e+02 0.0000e+00 -1.0000e+00
       21  1    1    2  504  503 -1.9976106461e+01 -3.3656810769e+01 -6.7151154185e+02 6.7265115519e+02 0.0000000000e+00 0.0000e+00 1.0000e+00
       21  1    1    2  505  506 -3.7227225911e+01 +2.0206386632e+00 +1.2588976506e+02 1.3129425835e+02 0.0000000000e+00 0.0000e+00 -1.0000e+00
       21  1    1    2  506  502 -5.2110178890e+01 +4.3087861207e+01 -1.4700617338e+02 1.6181115394e+02 0.0000000000e+00 0.0000e+00 1.0000e+00
<mgrwt>
<rscale>  5 0.26143967E+03</rscale>
<asrwt>0</asrwt>
<pdfrwt beam="1">  1       21 0.32411362E+00 0.26143967E+03</pdfrwt>
<pdfrwt beam="2">  1       21 0.13332368E+00 0.26143967E+03</pdfrwt>
<totfact> 0.89121835E+00</totfact>
</mgrwt>
</event>
<event>
 7      1 +1.2618638e+02 1.96429200e+02 7.54677100e-03 1.13461400e-01
       21 -1    0    0  504  502 +0.0000000000e+00 +0.0000000000e+00 +1.1244216591e+03 1.1244216591e+03 0.0000000000e+00 0.0000e+00 1.0000e+00
       21 -1    0    0  501  503 -0.0000000000e+00 -0.0000000000e+00 -1.4206596918e+02 1.4206596918e+02 0.0000000000e+00 0.0000e+00 1.0000e+00
        6  1    1    2  501    0 +1.1759459547e+02 +6.4603320027e+01 +5.3103312701e+02 5.7439294897e+02 1.7300000000e+02 0.0000e+00 1.0000e+00
       -6  1    1    2    0  505 -3.9647066577e+01 -8.0198922751e+01 -1.1673840940e+01 1.9511287928e+02 1.7300000000e+02 0.0000e+00 1.0000e+00
       21  1    1    2  504  506 -2.9375043812e+01 -1.0286521642e+01 +6.3091399689e+01 7.0350767168e+01 0.0000000000e+00 0.0000e+00 -1.0000e+00
       21  1    1    2  505  502 -7.5570667454e+01 +5.7625263506e+01 +1.8786140826e+02 2.1053148337e+02 0.0000000000e+00 0.0000e+00 1.0000e+00
       21  1    1    2  506  503 +2.6998182375e+01 -3.1743139139e+01 +2.1204359588e+02 2.1609954948e+02 0.0000000000e+00 0.0000e+00 -1.0000e+00
<mgrwt>
<rscale>  5 0.19642917E+03</rscale>
<asrwt>0</asrwt>
<pdfrwt beam="1">  1       21 0.17298794E+00 0.19642917E+03</pdfrwt>
<pdfrwt beam="2">  1       21 0.21856304E-01 0.19642917E+03</pdfrwt>
<totfact> 0.39607585E+03</totfact>
</mgrwt>
</event>
<event>
 7      1 +1.2618638e+02 3.62938400e+02 7.54677100e-03 1.08697400e-01
       21 -1    0    0  503  502 +0.0000000000e+00 +0.0000000000e+00 +7.6645784275e+02 7.6645784275e+02 0.0000000000e+00 0.0000e+00 -1.0000e+00
       21 -1    0    0  504  503 -0.0000000000e+00 -0.0000000000e+00 -1.2880166404e+03 1.2880166404e+03 0.0000000000e+00 0.0000e+00 1.0000e+00
        6  1    1    2  501    0 -2.6084368764e+02 -6.8410334265e+01 +3.8103806529e+02 4.9783371764e+02 1.7300000000e+02 0.0000e+00 -1.0000e+00
       -6  1    1    2    0  505 +3.0678243563e+02 +6.9586239214e+01 -1.4126253148e+02 3.8580022071e+02 1.7300000000e+02 0.0000e+00 1.0000e+00
       21  1    1    2  504  506 -7.2422633353e+01 -5.4383146323e+01 +1.7658978910e+02 1.9846036894e+02 0.0000000000e+00 0.0000e+00 -1.0000e+00
       21  1    1    2  505  502 +2.3319569579e+01 +2.4335251879e+01 -9.4239125242e+02 9.4299378548e+02 0.0000000000e+00 0.0000e+00 1.0000e+00
       21  1    1    2  506  501 +3.1643157817e+00 +2.8871989494e+01 +4.4671318694e+00 2.9386390368e+01 0.0000000000e+00 0.0000e+00 -1.0000e+00
<mgrwt>
<rscale>  5 0.36293839E+03</rscale>
<asrwt>0</asrwt>
<pdfrwt beam="1">  1       21 0.11791659E+00 0.36293839E+03</pdfrwt>
<pdfrwt beam="2">  1       21 0.19815640E+00 0.36293839E+03</pdfrwt>
<totfact> 0.63493709E+01</totfact>
</mgrwt>
</event>
<event>
 7      1 +1.2618638e+02 2.58198900e+02 7.54677100e-03 1.12724800e-01
       21 -1    0    0  505  502 +0.0000000000e+00 +0.0000000000e+00 +1.2926524810e+02 1.2926524810e+02 0.0000000000e+00 0.0000e+00 1.0000e+00
       21 -1    0    0  502  503 -0.0000000000e+00 -0.0000000000e+00 -1.6277284273e+03 1.6277284273e+03 0.0000000000e+00 0.0000e+00 -1.0000e+00
        6  1    1    2  501    0 +8.1648850198e+01 -1.3152257666e+02 -6.1158558940e+02 6.5416408956e+02 1.7300000000e+02 0.0000e+00 1.0000e+00
       -6  1    1    2    0  503 +1.3655264732e+01 +1.8904489705e+02 -1.3427385325e+02 2.8962545990e+02 1.7300000000e+02 0.0000e+00 1.0000e+00
       21  1    1    2  504  506 +3.6181519017e+00 -2.2157473634e+01 -4.9384583166e+01 5.4248333758e+01 0.0000000000e+00 0.0000e+00 1.0000e+00
       21  1    1    2  505  504 -6.1841577532e+01 -7.5234613015e+01 -6.9743463853e+02 7.0420146459e+02 0.0000000000e+00 0.0000e+00 1.0000e+00
       21  1    1    2  506  501 -3.7080689300e+01 +3.9869766254e+01 -5.7845148771e+00 5.4754327614e+01 0.0000000000e+00 0.0000e+00 -1.0000e+00
<mgrwt>
<rscale>  5 0.25819889E+03</rscale>
<asrwt>0</asrwt>
<pdfrwt beam="1">  1       21 0.19886962E-01 0.25819889E+03</pdfrwt>
<pdfrwt beam="2">  1       21 0.25041975E+00 0.25819889E+03</pdfrwt>
<totfact> 0.14414487E+03</totfact>
</mgrwt>
</event>
<event>
 7      1 +1.2618638e+02 2.36061200e+02 7.54677100e-03 1.04014800e-01
       21 -1    0    0  504  502 +0.0000000000e+00 +0.0000000000e+00 +6.0391901893e+02 6.0391901893e+02 0.0000000000e+00 0.0000e+00 1.0000e+00
       21 -1    0    0  502  503 -0.0000000000e+00 -0.0000000000e+00 -5.7175653843e+02 5.7175653843e+02 0.0000000000e+00 0.0000e+00 -1.0000e+00
        6  1    1    2  501    0 -7.2913563983e+01 +2.0486385207e+02 -3.3514280700e+02 4.3535650538e+02 1.7300000000e+02 0.0000e+00 -1.0000e+00
       -6  1    1    2    0  503 +1.9134467751e+01 -7.4863029959e+01 -4.8082860632e+01 1.9547778032e+02 1.7300000000e+02 0.0000e+00 -1.0000e+00
       21  1    1    2  504  505 +2.4110258198e+01 +7.0087773109e+00 +3.5789560644e+02 3.5877526756e+02 0.0000000000e+00 0.0000e+00 1.0000e+00
       21  1    1    2  505  506 -2.8002804483e+01 -2.9358857189e+00 +2.2336845445e+01 3.5940383251e+01 0.0000000000e+00 0.0000e+00 -1.0000e+00
       21  1    1    2  506  501 +5.7671642516e+01 -1.3407371370e+02 +3.5155696242e+01 1.5012562084e+02 0.0000000000e+00 0.0000e+00 1.0000e+00
<mgrwt>
<rscale>  5 0.23606119E+03</rscale>
<asrwt>0</asrwt>
<pdfrwt beam="1">  1       21 0.92910619E-01 0.23606119E+03</pdfrwt>
<pdfrwt beam="2">  1       21 0.87962544E-01 0.23606119E+03</pdfrwt>
<totfact> 0.10382564E+03</totfact>
</mgrwt>
</event>
<event>
 7      1 +1.2618638e+02 2.53178900e+02 7.54677100e-03 1.12724800e-01
       21 -1    0    0  505  502 +0.0000000000e+00 +0.0000000000e+00 +4.4976529506e+02 4.4976529506e+02 0.0000000000e+00 0.0000e+00 -1.0000e+00
       21 -1    0    0  502  503 -0.0000000000e+00 -0.0000000000e+00 -8.8119276991e+02 8.8119276991e+02 0.0000000000e+00 0.0000e+00 -1.0000e+00
        6  1    1    2  501    0 -6.3849287470e+01 +4.1231658015e+01 -2.8494235411e+01 1.9109605591e+02 1.7300000000e+02 0.0000e+00 -1.0000e+00
       -6  1    1    2    0  503 -5.0388348890e+01 -2.1180583844e+02 +1.5734895665e+02 3.1951274319e+02 1.7300000000e+02 0.0000e+00 -1.0000e+00
       21  1    1    2  504  506 +1.4303554291e+02 +4.5987077782e+00 -3.6372934817e+02 3.9086999549e+02 0.0000000000e+00 0.0000e+00 -1.0000e+00
       21  1    1    2  505  504 +4.1307921502e+01 +4.2581545549e+01 -2.6525334537e+02 2.7180667694e+02 0.0000000000e+00 0.0000e+00 -1.0000e+00
       21  1    1    2  506  501 -7.0105828057e+01 +1.2339392710e+02 +6.8700497441e+01 1.5767259344e+02 0.0000000000e+00 0.0000e+00 -1.0000e+00
<mgrwt>
<rscale>  5 0.23978846E+03</rscale>
<asrwt>0</asrwt>
<pdfrwt beam="1">  1       21 0.69194662E-01 0.25317886E+03</pdfrwt>
<pdfrwt beam="2">  1       21 0.13556812E+00 0.25317886E+03</pdfrwt>
<totfact> 0.69730842E+02</totfact>
</mgrwt>
</event>
<event>
 7      1 +1.2618638e+02 2.12467900e+02 7.54677100e-03 1.12385500e-01
       21 -1    0    0  506  502 +0.0000000000e+00 +0.0000000000e+00 +2.8641813657e+02 2.8641813657e+02 0.0000000000e+00 0.0000e+00 -1.0000e+00
       21 -1    0    0  504  503 -0.0000000000e+00 -0.0000000000e+00 -2.9116198633e+02 2.9116198633e+02 0.0000000000e+00 0.0000e+00 1.0000e+00
        6  1    1    2  501    0 +8.6393774262e+01 -4.1909146322e+01 -2.8643440594e+01 1.9992425432e+02 1.7300000000e+02 0.0000e+00 1.0000e+00
       -6  1    1    2    0  503 -1.2930984870e+02 +7.3408425094e+01 +1.9875016875e+01 2.2898438842e+02 1.7300000000e+02 0.0000e+00 -1.0000e+00
       21  1    1    2  504  502 +2.1302821300e+01 +2.9429234245e+00 -1.6245866128e+01 2.6951793259e+01 0.0000000000e+00 0.0000e+00 -1.0000e+00
       21  1    1    2  505  501 +3.1294364041e+01 -1.1419230756e+01 -4.2595014874e+01 5.4074683022e+01 0.0000000000e+00 0.0000e+00 1.0000e+00
       21  1    1    2  506  505 -9.6811109000e+00 -2.3022971441e+01 +6.2865454963e+01 6.7645003880e+01 0.0000000000e+00 0.0000e+00 1.0000e+00
<mgrwt>
<rscale>  5 0.21246786E+03</rscale>
<asrwt>0</asrwt>
<pdfrwt beam="1">  1       21 0.44064329E-01 0.21246786E+03</pdfrwt>
<pdfrwt beam="2">  1       21 0.44794152E-01 0.21246786E+03</pdfrwt>
<totfact> 0.23398378E+04</totfact>
</mgrwt>
</event>
<event>
 7      1 +1.2618638e+02 2.27005300e+02 7.54677100e-03 1.17141900e-01
       21 -1    0    0  506  502 +0.0000000000e+00 +0.0000000000e+00 +3.9176259775e+02 3.9176259775e+02 0.0000000000e+00 0.0000e+00 1.0000e+00
       21 -1    0    0  501  503 -0.0000000000e+00 -0.0000000000e+00 -3.5135826670e+02 3.5135826670e+02 0.0000000000e+00 0.0000e+00 1.0000e+00
        6  1    1    2  501    0 -8.9068945040e+01 -1.0658891918e+02 -7.0359717107e+01 2.3275301170e+02 1.7300000000e+02 0.0000e+00 -1.0000e+00
       -6  1    1    2    0  505 +2.0977945140e+00 +2.0959817114e+02 +1.0967469289e+02 2.9307564271e+02 1.7300000000e+02 0.0000e+00 1.0000e+00
       21  1    1    2  504  502 -4.8010075542e+00 -6.8327022640e+01 +3.9237794389e+01 7.8938179641e+01 0.0000000000e+00 0.0000e+00 1.0000e+00
       21  1    1    2  505  504 +2.2467927903e+01 -2.3739097116e+01 +2.7161965168e+01 4.2498527832e+01 0.0000000000e+00 0.0000e+00 1.0000e+00
       21  1    1    2  506  503 +6.9304230178e+01 -1.0943132205e+01 -6.5310404293e+01 9.5855502564e+01 0.0000000000e+00 0.0000e+00 1.0000e+00
<mgrwt>
<rscale>  5 0.22700532E+03</rscale>
<asrwt>0</asrwt>
<pdfrwt beam="1">  1       21 0.60271169E-01 0.22700532E+03</pdfrwt>
<pdfrwt beam="2">  1       21 0.54055118E-01 0.22700532E+03</pdfrwt>
<totfact> 0.81108272E+03</totfact>
</mgrwt>
</event>
<event>
 7      1 +1.2618638e+02 2.61367500e+02 7.54677100e-03 1.17407200e-01
       21 -1    0    0  505  502 +0.0000000000e+00 +0.0000000000e+00 +6.4794254726e+02 6.4794254726e+02 0.0000000000e+00 0.0000e+00 1.0000e+00
       21 -1    0    0  501  503 -0.0000000000e+00 -0.0000000000e+00 -1.0640716821e+03 1.0640716821e+03 0.0000000000e+00 0.0000e+00 1.0000e+00
        6  1    1    2  501    0 -7.2119279368e+01 -6.9950679707e+00 -3.5542488451e+02 4.0187805359e+02 1.7300000000e+02 0.0000e+00 1.0000e+00
       -6  1    1    2    0  506 -7.2140049089e+01 -1.8832570127e+02 -3.0233610051e+02 4.0250077529e+02 1.7300000000e+02 0.0000e+00 1.0000e+00
       21  1    1    2  504  502 -3.5935135350e+01 +1.9379641303e+02 +5.0595827734e+02 5.4299370352e+02 0.0000000000e+00 0.0000e+00 1.0000e+00
       21  1    1    2  505  503 +1.5642657405e+02 +6.2092781796e+01 -1.2113432670e+02 2.0736034270e+02 0.0000000000e+00 0.0000e+00 -1.0000e+00
       21  1    1    2  506  504 +2.3767889757e+01 -6.0568425581e+01 -1.4319210049e+02 1.5728135428e+02 0.0000000000e+00 0.0000e+00 1.0000e+00
<mgrwt>
<rscale>  5 0.23613700E+03</rscale>
<asrwt>0</asrwt>
<pdfrwt beam="1">  1       21 0.99683470E-01 0.26136747E+03</pdfrwt>
<pdfrwt beam="2">  1       21 0.16370333E+00 0.26136747E+03</pdfrwt>
<totfact> 0.18114207E+02</totfact>
</mgrwt>
</event>
<event>
 7      1 +1.2618638e+02 2.45577200e+02 7.54677100e-03 1.04874800e-01
       21 -1    0    0  501  502 +0.0000000000e+00 +0.0000000000e+00 +2.5423452868e+03 2.5423452868e+03 0.0000000000e+00 0.0000e+00 1.0000e+00
       21 -1    0    0  506  503 -0.0000000000e+00 -0.0000000000e+00 -1.5472109261e+02 1.5472109261e+02 0.0000000000e+00 0.0000e+00 -1.0000e+00
        6  1    1    2  501    0 +2.9657546202e+01 +1.1001513375e+02 +6.0947692133e+02 6.4371889621e+02 1.7300000000e+02 0.0000e+00 1.0000e+00
       -6  1    1    2    0  505 -2.2588540804e+02 -8.4087945593e+01 +7.9134139932e+01 3.0706060031e+02 1.7300000000e+02 0.0000e+00 -1.0000e+00
       21  1    1    2  504  503 +4.7586415213e+01 +1.2998243541e+01 +5.3498185444e+01 7.2770028815e+01 0.0000000000e+00 0.0000e+00 -1.0000e+00
       21  1    1    2  505  504 +9.0749538442e+00 -3.3849876784e+01 +1.6868916590e+01 3.8893820750e+01 0.0000000000e+00 0.0000e+00 -1.0000e+00
       21  1    1    2  506  502 +1.3956649278e+02 -5.0755549177e+00 +1.6286460309e+03 1.6346230333e+03 0.0000000000e+00 0.0000e+00 1.0000e+00
<mgrwt>
<rscale>  5 0.24557723E+03</rscale>
<asrwt>0</asrwt>
<pdfrwt beam="1">  1       21 0.39113001E+00 0.24557723E+03</pdfrwt>
<pdfrwt beam="2">  1       21 0.23803247E-01 0.24557723E+03</pdfrwt>
<totfact> 0.15142085E+02</totfact>
</mgrwt>
</event>
<event>
 7      1 +1.2618638e+02 2.08426500e+02 7.54677100e-03 1.17369200e-01
       21 -1    0    0  506  502 +0.0000000000e+00 +0.0000000000e+00 +1.1431474003e+02 1.1431474003e+02 0.0000000000e+00 0.0000e+00 1.0000e+00
       21 -1    0    0  502  503 -0.0000000000e+00 -0.0000000000e+00 -9.4437576422e+02 9.4437576422e+02 0.0000000000e+00 0.0000e+00 -1.0000e+00
        6  1    1    2  501    0 -6.9875261676e+01 -8.7979762174e+00 -2.1379275645e+02 2.8389487366e+02 1.7300000000e+02 0.0000e+00 1.0000e+00
       -6  1    1    2    0  503 +1.5304177549e+02 +2.2077396833e+01 -1.4680940817e+02 2.7457457789e+02 1.7300000000e+02 0.0000e+00 -1.0000e+00
       21  1    1    2  504  505 -8.4713127297e+01 -6.0383625713e+00 -3.0335014192e+02 3.1501441930e+02 0.0000000000e+00 0.0000e+00 -1.0000e+00
       21  1    1    2  505  501 +1.3280479851e+01 -3.0073678185e+01 -2.3762690729e+01 4.0564303708e+01 0.0000000000e+00 0.0000e+00 1.0000e+00
       21  1    1    2  506  504 -1.1733866370e+01 +2.2832620141e+01 -1.4234602691e+02 1.4464232969e+02 0.0000000000e+00 0.0000e+00 -1.0000e+00
<mgrwt>
<rscale>  5 0.20842649E+03</rscale>
<asrwt>0</asrwt>
<pdfrwt beam="1">  1       21 0.17586883E-01 0.20842649E+03</pdfrwt>
<pdfrwt beam="2">  1       21 0.14528858E+00 0.20842649E+03</pdfrwt>
<totfact> 0.94118807E+03</totfact>
</mgrwt>
</event>
<event>
 7      1 +1.2618638e+02 2.37074500e+02 7.54677100e-03 1.06502400e-01
       21 -1    0    0  504  502 +0.0000000000e+00 +0.0000000000e+00 +2.0677317698e+03 2.0677317698e+03 0.0000000000e+00 0.0000e+00 1.0000e+00
       21 -1    0    0  502  503 -0.0000000000e+00 -0.0000000000e+00 -6.4470883008e+02 6.4470883008e+02 0.0000000000e+00 0.0000e+00 -1.0000e+00
        6  1    1    2  501    0 +1.2895255378e+02 -1.7610181695e+02 +4.2127247379e+02 5.0501495842e+02 1.7300000000e+02 0.0000e+00 1.0000e+00
       -6  1    1    2    0  506 -3.9504927517e+01 +1.6896725183e+02 +7.7082176389e+02 8.0882987283e+02 1.7300000000e+02 0.0000e+00 1.0000e+00
       21  1    1    2  504  501 -3.6906711281e+00 -2.9745586089e+01 +7.2133456623e+02 7.2195704678e+02 0.0000000000e+00 0.0000e+00 1.0000e+00
       21  1    1    2  505  503 -9.6878475507e+01 +6.6564260748e+01 -5.7469168550e+02 5.8658910082e+02 0.0000000000e+00 0.0000e+00 -1.0000e+00
       21  1    1    2  506  505 +1.1121520374e+01 -2.9684109547e+01 +8.4285821324e+01 9.0049621051e+01 0.0000000000e+00 0.0000e+00 1.0000e+00
<mgrwt>
<rscale>  5 0.23707449E+03</rscale>
<asrwt>0</asrwt>
<pdfrwt beam="1">  1       21 0.31811258E+00 0.23707449E+03</pdfrwt>
<pdfrwt beam="2">  1       21 0.99185975E-01 0.23707449E+03</pdfrwt>
<totfact> 0.20813386E+01</totfact>
</mgrwt>
</event>
<event>
 7      1 +1.2618638e+02 1.94778000e+02 7.54677100e-03 1.17141900e-01
       21 -1    0    0  506  502 +0.0000000000e+00 +0.0000000000e+00 +1.0004531463e+03 1.0004531463e+03 0.0000000000e+00 0.0000e+00 -1.0000e+00
       21 -1    0    0  501  503 -0.0000000000e+00 -0.0000000000e+00 -2.4770177507e+02 2.4770177507e+02 0.0000000000e+00 0.0000e+00 -1.0000e+00
        6  1    1    2  501    0 -1.3313116632e+02 +7.3826949783e+01 -9.2854826367e+01 2.4844585877e+02 1.7300000000e+02 0.0000e+00 1.0000e+00
       -6  1    1    2    0  504 +2.3788344717e+01 +8.2122367898e+01 +1.7624203520e+02 2.6134311475e+02 1.7300000000e+02 0.0000e+00 -1.0000e+00
       21  1    1    2  504  505 +6.2948348064e+01 -7.8158990481e+01 +3.4368811297e+02 3.5804027890e+02 0.0000000000e+00 0.0000e+00 -1.0000e+00
       21  1    1    2  505  502 +1.8136231323e+01 -3.7457565155e+01 +3.2837798791e+02 3.3100467522e+02 0.0000000000e+00 0.0000e+00 -1.0000e+00
       21  1    1    2  506  503 +2.8258242219e+01 -4.0332762046e+01 -2.7019385154e+00 4.9320993697e+01 0.0000000000e+00 0.0000e+00 1.0000e+00
<mgrwt>
<rscale>  5 0.19477797E+03</rscale>
<asrwt>0</asrwt>
<pdfrwt beam="1">  1       21 0.15391587E+00 0.19477797E+03</pdfrwt>
<pdfrwt beam="2">  1       21 0.38107966E-01 0.19477797E+03</pdfrwt>
<totfact> 0.18505067E+03</totfact>
</mgrwt>
</event>
<event>
 7      1 +1.2618638e+02 2.16254900e+02 7.54677100e-03 1.09006200e-01
       21 -1    0    0  504  502 +0.0000000000e+00 +0.0000000000e+00 +8.6588829559e+01 8.6588829559e+01 0.0000000000e+00 0.0000e+00 -1.0000e+00
       21 -1    0    0  501  503 -0.0000000000e+00 -0.0000000000e+00 -1.1542308834e+03 1.1542308834e+03 0.0000000000e+00 0.0000e+00 -1.0000e+00
        6  1    1    2  501    0 -1.1030200454e+02 -9.0425199331e+01 -3.5530542642e+02 4.2013592434e+02 1.7300000000e+02 0.0000e+00 -1.0000e+00
       -6  1    1    2    0  506 +1.4254735676e+02 -4.2905332290e+01 -5.4284037685e+02 5.8886780452e+02 1.7300000000e+02 0.0000e+00 -1.0000e+00
       21  1    1    2  504  505 -3.5075503214e+01 +7.2433557595e+01 -1.0592209786e+02 1.3302782418e+02 0.0000000000e+00 0.0000e+00 1.0000e+00
       21  1    1    2  505  503 -2.0167841444e+01 +3.7073615575e+01 -3.1254778783e+01 5.2517197156e+01 0.0000000000e+00 0.0000e+00 1.0000e+00
       21  1    1    2  506  502 +2.2997992444e+01 +2.3823358451e+01 -3.2319373953e+01 4.6270962785e+01 0.0000000000e+00 0.0000e+00 -1.0000e+00
<mgrwt>
<rscale>  5 0.21625493E+03</rscale>
<asrwt>0</asrwt>
<pdfrwt beam="1">  1       21 0.13321359E-01 0.21625493E+03</pdfrwt>
<pdfrwt beam="2">  1       21 0.17757397E+00 0.21625493E+03</pdfrwt>
<totfact> 0.90258430E+03</totfact>
</mgrwt>
</event>
<event>
 7      1 +1.2618638e+02 1.85912000e+02 7.54677100e-03 1.02913700e-01
       21 -1    0    0  505  502 +0.0000000000e+00 +0.0000000000e+00 +4.8627939120e+02 4.8627939120e+02 0.0000000000e+00 0.0000e+00 1.0000e+00
       21 -1    0    0  506  503 -0.0000000000e+00 -0.0000000000e+00 -1.4894469734e+03 1.4894469734e+03 0.0000000000e+00 0.0000e+00 1.0000e+00
        6  1    1    2  501    0 -6.4842720125e+01 -6.2885687783e+01 +3.2115447944e+02 3.7580365585e+02 1.7300000000e+02 0.0000e+00 1.0000e+00
       -6  1    1    2    0  502 +9.1270847482e+01 +3.7875068223e+01 -9.2916727738e+00 1.9944980215e+02 1.7300000000e+02 0.0000e+00 1.0000e+00
       21  1    1    2  504  501 +2.4638129070e+01 +3.2416393978e+01 -3.0733656603e+02 3.1002197474e+02 0.0000000000e+00 0.0000e+00 1.0000e+00
       21  1    1    2  505  503 -7.3336591032e+01 -5.2389599106e+01 -1.0311251591e+03 1.0350565296e+03 0.0000000000e+00 0.0000e+00 1.0000e+00
       21  1    1    2  506  504 +2.2270334605e+01 +4.4983824687e+01 +2.3431336259e+01 5.5394402297e+01 0.0000000000e+00 0.0000e+00 -1.0000e+00
<mgrwt>
<rscale>  5 0.18591201E+03</rscale>
<asrwt>0</asrwt>
<pdfrwt beam="1">  1       21 0.74812216E-01 0.18591201E+03</pdfrwt>
<pdfrwt beam="2">  1       21 0.22914568E+00 0.18591201E+03</pdfrwt>
<totfact> 0.14291875E+02</totfact>
</mgrwt>
</event>
<event>
 7      1 +1.2618638e+02 1.75430300e+02 7.54677100e-03 1.17191400e-01
       21 -1    0    0  504  502 +0.0000000000e+00 +0.0000000000e+00 +8.6469105853e+01 8.6469105853e+01 0.0000000000e+00 0.0000e+00 -1.0000e+00
       21 -1    0    0  501  503 -0.0000000000e+00 -0.0000000000e+00 -1.6231628031e+03 1.6231628031e+03 0.0000000000e+00 0.0000e+00 -1.0000e+00
        6  1    1    2  501    0 -6.3954592656e+01 +5.0785293053e+01 -1.0699479098e+03 1.0869162183e+03 1.7300000000e+02 0.0000e+00 -1.0000e+00
       -6  1    1    2    0  505 +3.7178983113e+01 +2.8992013676e+01 -1.2222845022e+02 2.1700600841e+02 1.7300000000e+02 0.0000e+00 -1.0000e+00
       21  1    1    2  504  506 -3.5681863103e+01 -1.5859265229e+01 -2.3514685955e+01 4.5581269220e+01 0.0000000000e+00 0.0000e+00 -1.0000e+00
       21  1    1    2  505  502 +1.3069909308e+01 -2.6585005421e+01 +3.4478103803e+00 2.9824024527e+01 0.0000000000e+00 0.0000e+00 1.0000e+00
       21  1    1    2  506  503 +4.9387563339e+01 -3.7333036079e+01 -3.2445046170e+02 3.3030438855e+02 0.0000000000e+00 0.0000e+00 1.0000e+00
<mgrwt>
<rscale>  5 0.17543033E+03</rscale>
<asrwt>0</asrwt>
<pdfrwt beam="1">  1       21 0.13302942E-01 0.17543033E+03</pdfrwt>
<pdfrwt beam="2">  1       21 0.24971731E+00 0.17543033E+03</pdfrwt>
<totfact> 0.33190015E+03</totfact>
</mgrwt>
</event>
<event>
 7      1 +1.2618638e+02 2.50676300e+02 7.54677100e-03 1.17407200e-01
       21 -1    0    0  505  502 +0.0000000000e+00 +0.0000000000e+00 +2.3632371639e+02 2.3632371639e+02 0.0000000000e+00 0.0000e+00 1.0000e+00
       21 -1    0    0  501  503 -0.0000000000e+00 -0.0000000000e+00 -1.1274500158e+03 1.1274500158e+03 0.0000000000e+00 0.0000e+00 1.0000e+00
        6  1    1    2  501    0 -2.5553384556e+02 -8.8154962055e+01 -5.7903410691e+02 6.6202593645e+02 1.7300000000e+02 0.0000e+00 1.0000e+00
       -6  1    1    2    0  504 +1.2392524966e+02 -9.9215970392e+01 -1.9992464383e+02 3.0838310507e+02 1.7300000000e+02 0.0000e+00 -1.0000e+00
       21  1    1    2  504  506 +5.3362560749e+01 +1.5082021612e+02 +8.1888265100e+01 1.7972197540e+02 0.0000000000e+00 0.0000e+00 1.0000e+00
       21  1    1    2  505  503 +2.3348627945e+01 +1.6419773801e+01 -4.2475123341e+01 5.1175223511e+01 0.0000000000e+00 0.0000e+00 -1.0000e+00
       21  1    1    2  506  502 +5.4897407213e+01 +2.0130942523e+01 -1.5158069039e+02 1.6246749172e+02 0.0000000000e+00 0.0000e+00 1.0000e+00
<mgrwt>
<rscale>  5 0.25067628E+03</rscale>
<asrwt>0</asrwt>
<pdfrwt beam="1">  1       21 0.36357494E-01 0.25067628E+03</pdfrwt>
<pdfrwt beam="2">  1       21 0.17345385E+00 0.25067628E+03</pdfrwt>
<totfact> 0.13958135E+03</totfact>
</mgrwt>
</event>
<event>
 7      1 +1.2618638e+02 3.64574600e+02 7.54677100e-03 1.16278100e-01
       21 -1    0    0  504  502 +0.0000000000e+00 +0.0000000000e+00 +2.3651488178e+03 2.3651488178e+03 0.0000000000e+00 0.0000e+00 1.0000e+00
       21 -1    0    0  501  503 -0.0000000000e+00 -0.0000000000e+00 -2.9478284234e+02 2.9478284234e+02 0.0000000000e+00 0.0000e+00 -1.0000e+00
        6  1    1    2  501    0 -2.2672417918e+02 -9.7874616496e+01 -6.1147038916e+01 3.0765443983e+02 1.7300000000e+02 0.0000e+00 -1.0000e+00
       -6  1    1    2    0  505 +3.0628713618e+01 +3.6219069142e+02 +1.0188759435e+03 1.0955169571e+03 1.7300000000e+02 0.0000e+00 1.0000e+00
       21  1    1    2  504  503 +3.6800525717e+01 +1.6983653221e+00 +1.8248640584e+02 1.8616780456e+02 0.0000000000e+00 0.0000e+00 -1.0000e+00
       21  1    1    2  505  506 +1.4082287431e+02 -2.4761680446e+02 +2.1989805969e+02 3.5986152953e+02 0.0000000000e+00 0.0000e+00 -1.0000e+00
       21  1    1    2  506  502 +1.8472065537e+01 -1.8397635781e+01 +7.1025260529e+02 7.1073092907e+02 0.0000000000e+00 0.0000e+00 1.0000e+00
<mgrwt>
<rscale>  5 0.36457464E+03</rscale>
<asrwt>0</asrwt>
<pdfrwt beam="1">  1       21 0.36386904E+00 0.36457464E+03</pdfrwt>
<pdfrwt beam="2">  1       21 0.45351208E-01 0.36457464E+03</pdfrwt>
<totfact> 0.54132536E+01</totfact>
</mgrwt>
</event>
<event>
 7      1 +1.2618638e+02 3.34154400e+02 7.54677100e-03 1.13461400e-01
       21 -1    0    0  504  502 +0.0000000000e+00 +0.0000000000e+00 +5.4371424466e+02 5.4371424466e+02 0.0000000000e+00 0.0000e+00 -1.0000e+00
       21 -1    0    0  501  503 -0.0000000000e+00 -0.0000000000e+00 -8.3745372641e+02 8.3745372641e+02 0.0000000000e+00 0.0000e+00 1.0000e+00
        6  1    1    2  501    0 -2.5068351154e+02 +1.8221922472e+02 -1.7472349865e+02 3.9560506796e+02 1.7300000000e+02 0.0000e+00 -1.0000e+00
       -6  1    1    2    0  505 +7.5075574764e+01 -2.8853272915e+02 -4.0277841652e+02 5.3013859559e+02 1.7300000000e+02 0.0000e+00 1.0000e+00
       21  1    1    2  504  506 -1.7569954845e+01 -4.0213952208e+01 +1.6740418820e+02 1.7306076243e+02 0.0000000000e+00 0.0000e+00 -1.0000e+00
       21  1    1    2  505  502 +1.4797174246e+02 +1.4263912772e+02 +1.1794009279e+02 2.3696291442e+02 0.0000000000e+00 0.0000e+00 -1.0000e+00
       21  1    1    2  506  503 +4.5206149155e+01 +3.8883289162e+00 -1.5818475766e+00 4.5400630667e+01 0.0000000000e+00 0.0000e+00 1.0000e+00
<mgrwt>
<rscale>  5 0.33415441E+03</rscale>
<asrwt>0</asrwt>
<pdfrwt beam="1">  1       21 0.83648345E-01 0.33415441E+03</pdfrwt>
<pdfrwt beam="2">  1       21 0.12883903E+00 0.33415441E+03</pdfrwt>
<totfact> 0.48777217E+02</totfact>
</mgrwt>
</event>
<event>
 7      1 +1.2618638e+02 1.80020300e+02 7.54677100e-03 1.07499700e-01
       21 -1    0    0  504  502 +0.0000000000e+00 +0.0000000000e+00 +4.8294561880e+02 4.8294561880e+02 0.0000000000e+00 0.0000e+00 -1.0000e+00
       21 -1    0    0  501  503 -0.0000000000e+00 -0.0000000000e+00 -2.5847493477e+02 2.5847493477e+02 0.0000000000e+00 0.0000e+00 -1.0000e+00
        6  1    1    2  501    0 +4.4724833581e+01 +4.3094094613e+00 -4.7717964156e+01 1.8499969149e+02 1.7300000000e+02 0.0000e+00 -1.0000e+00
       -6  1    1    2    0  506 +7.9196439881e+01 -3.2527006422e+01 +1.7757886092e+02 2.6228483388e+02 1.7300000000e+02 0.0000e+00 -1.0000e+00
       21  1    1    2  504  505 +3.5218806126e+00 +2.2692809826e+01 +1.6939035605e+01 2.8535910500e+01 0.0000000000e+00 0.0000e+00 1.0000e+00
       21  1    1    2  505  503 -1.1984721756e+02 +3.1621164659e+01 -5.1043646768e+01 1.3404740761e+02 0.0000000000e+00 0.0000e+00 -1.0000e+00
       21  1    1    2  506  502 -7.5959365152e+00 -2.6096377525e+01 +1.2871439843e+02 1.3155271010e+02 0.0000000000e+00 0.0000e+00 -1.0000e+00
<mgrwt>
<rscale>  5 0.18002028E+03</rscale>
<asrwt>0</asrwt>
<pdfrwt beam="1">  1       21 0.74299325E-01 0.18002028E+03</pdfrwt>
<pdfrwt beam="2">  1       21 0.39765375E-01 0.18002028E+03</pdfrwt>
<totfact> 0.99840329E+03</totfact>
</mgrwt>
</event>
<event>
 7      1 +1.2618638e+02 2.36444200e+02 7.54677100e-03 1.07345900e-01
       21 -1    0    0  505  502 +0.0000000000e+00 +0.0000000000e+00 +5.6178612524e+02 5.6178612524e+02 0.0000000000e+00 0.0000e+00 -1.0000e+00
       21 -1    0    0  506  503 -0.0000000000e+00 -0.0000000000e+00 -4.8296894389e+02 4.8296894389e+02 0.0000000000e+00 0.0000e+00 -1.0000e+00
        6  1    1    2  501    0 +1.8682807670e+02 -8.7849078873e+01 +2.7916883160e+01 2.7079612860e+02 1.7300000000e+02 0.0000e+00 -1.0000e+00
       -6  1    1    2    0  504 -1.8396569916e+02 +4.5304827998e+01 -1.8218384139e+02 3.1466785341e+02 1.7300000000e+02 0.0000e+00 -1.0000e+00
       21  1    1    2  504  503 +8.3124561649e+01 -6.6539067994e+00 -8.7570473026e+01 1.2092375685e+02 0.0000000000e+00 0.0000e+00 -1.0000e+00
       21  1    1    2  505  501 -3.9217508449e+01 +4.4443815625e+00 +8.0699359390e+01 8.9834025304e+01 0.0000000000e+00 0.0000e+00 -1.0000e+00
       21  1    1    2  506  502 -4.6769430740e+01 +4.4753776112e+01 +2.3995525322e+02 2.4853330496e+02 0.0000000000e+00 0.0000e+00 1.0000e+00
<mgrwt>
<rscale>  5 0.23644419E+03</rscale>
<asrwt>0</asrwt>
<pdfrwt beam="1">  1       21 0.86428635E-01 0.23644419E+03</pdfrwt>
<pdfrwt beam="2">  1       21 0.74302914E-01 0.23644419E+03</pdfrwt>
<totfact> 0.18038086E+03</totfact>
</mgrwt>
</event>
<event>
 7      1 +1.2618638e+02 2.70767700e+02 7.54677100e-03 1.06665400e-01
       21 -1    0    0  506  502 +0.0000000000e+00 +0.0000000000e+00 +2.4157791674e+03 2.4157791674e+03 0.0000000000e+00 0.0000e+00 -1.0000e+00
       21 -1    0    0  505  503 -0.0000000000e+00 -0.0000000000e+00 -1.2066201995e+02 1.2066201995e+02 0.0000000000e+00 0.0000e+00 1.0000e+00
        6  1    1    2  501    0 +1.0295491520e+02 -1.7060218029e+02 +1.7924405273e+03 1.8117607078e+03 1.7300000000e+02 0.0000e+00 -1.0000e+00
       -6  1    1    2    0  504 -2.3134703956e+02 +1.6098119789e+02 +4.1922995657e+02 5.3396550008e+02 1.7300000000e+02 0.0000e+00 1.0000e+00
       21  1    1    2  504  502 +5.5850944019e+01 -1.3620237150e+01 +7.1273847021e+01 9.1568553975e+01 0.0000000000e+00 0.0000e+00 -1.0000e+00
       21  1    1    2  505  501 +4.3482257749e+01 +4.6854568866e+00 -2.3405305349e+01 4.9603110423e+01 0.0000000000e+00 0.0000e+00 -1.0000e+00
       21  1    1    2  506  503 +2.9058922588e+01 +1.8555762670e+01 +3.5578121972e+01 4.9543315123e+01 0.0000000000e+00 0.0000e+00 -1.0000e+00
<mgrwt>
<rscale>  5 0.27076775E+03</rscale>
<asrwt>0</asrwt>
<pdfrwt beam="1">  1       21 0.37165830E+00 0.27076775E+03</pdfrwt>
<pdfrwt beam="2">  1       21 0.18563389E-01 0.27076775E+03</pdfrwt>
<totfact> 0.30947659E+02</totfact>
</mgrwt>
</event>
<event>
 7      1 +1.2618638e+02 1.98116800e+02 7.54677100e-03 1.07499700e-01
       21 -1    0    0  505  502 +0.0000000000e+00 +0.0000000000e+00 +6.5057706041e+02 6.5057706041e+02 0.0000000000e+00 0.0000e+00 1.0000e+00
       21 -1    0    0  501  503 -0.0000000000e+00 -0.0000000000e+00 -3.3877574805e+02 3.3877574805e+02 0.0000000000e+00 0.0000e+00 1.0000e+00
        6  1    1    2  501    0 -1.0053279654e+02 -5.9341024743e+01 +1.7231612321e+02 2.7064745836e+02 1.7300000000e+02 0.0000e+00 -1.0000e+00
       -6  1    1    2    0  506 -2.9352725421e+01 +1.1366682679e+02 +3.5645833203e+02 4.1324722924e+02 1.7300000000e+02 0.0000e+00 1.0000e+00
       21  1    1    2  504  503 +6.7788441188e+01 -1.1835428602e+00 -1.7311841272e+02 1.8592110788e+02 0.0000000000e+00 0.0000e+00 1.0000e+00
       21  1    1    2  505  504 +4.0885264029e+01 -5.4559011492e+01 -6.1569559045e+01 9.1864580501e+01 0.0000000000e+00 0.0000e+00 1.0000e+00
       21  1    1    2  506  502 +2.1211816743e+01 +1.4167523059e+00 +1.7714828892e+01 2.7672432479e+01 0.0000000000e+00 0.0000e+00 1.0000e+00
<mgrwt>
<rscale>  5 0.19811683E+03</rscale>
<asrwt>0</asrwt>
<pdfrwt beam="1">  1       21 0.10008878E+00 0.19811683E+03</pdfrwt>
<pdfrwt beam="2">  1       21 0.52119346E-01 0.19811683E+03</pdfrwt>
<totfact> 0.28485624E+03</totfact>
</mgrwt>
</event>
<event>
 7      1 +1.2618638e+02 1.97336800e+02 7.54677100e-03 1.10474300e-01
       21 -1    0    0  501  502 +0.0000000000e+00 +0.0000000000e+00 +3.0314420135e+02 3.0314420135e+02 0.0000000000e+00 0.0000e+00 1.0000e+00
       21 -1    0    0  504  503 -0.0000000000e+00 -0.0000000000e+00 -1.7000327734e+03 1.7000327734e+03 0.0000000000e+00 0.0000e+00 1.0000e+00
        6  1    1    2  501    0 +5.4480048845e+01 +7.6179318567e+01 +9.8674255414e+01 2.2008401346e+02 1.7300000000e+02 0.0000e+00 1.0000e+00
       -6  1    1    2    0  506 -1.3719087484e+02 +2.0140851144e+01 +3.4257715166e+01 2.2434255297e+02 1.7300000000e+02 0.0000e+00 -1.0000e+00
       21  1    1    2  504  505 +6.6747965689e+00 -1.9193442489e+01 -1.3277608171e+03 1.3279163109e+03 0.0000000000e+00 0.0000e+00 1.0000e+00
       21  1    1    2  505  502 +5.8253496191e+01 -4.6670748163e+01 -1.1737166429e+02 1.3909613988e+02 0.0000000000e+00 0.0000e+00 1.0000e+00
       21  1    1    2  506  503 +1.7782533236e+01 -3.0455979059e+01 -8.4688061184e+01 9.1737957552e+01 0.0000000000e+00 0.0000e+00 1.0000e+00
<mgrwt>
<rscale>  5 0.19733679E+03</rscale>
<asrwt>0</asrwt>
<pdfrwt beam="1">  1       21 0.46637571E-01 0.19733679E+03</pdfrwt>
<pdfrwt beam="2">  1       21 0.26154349E+00 0.19733679E+03</pdfrwt>
<totfact> 0.24891466E+02</totfact>
</mgrwt>
</event>
<event>
 7      1 +1.2618638e+02 2.07740200e+02 7.54677100e-03 9.89563700e-02
       21 -1    0    0  505  502 +0.0000000000e+00 +0.0000000000e+00 +1.1241983469e+02 1.1241983469e+02 0.0000000000e+00 0.0000e+00 -1.0000e+00
       21 -1    0    0  502  503 -0.0000000000e+00 -0.0000000000e+00 -9.3158613781e+02 9.3158613781e+02 0.0000000000e+00 0.0000e+00 -1.0000e+00
        6  1    1    2  501    0 -1.7178766089e+02 -1.8469475917e+01 -3.9833413187e+02 4.6738763633e+02 1.7300000000e+02 0.0000e+00 -1.0000e+00
       -6  1    1    2    0  503 +7.6916826719e+01 -2.9967870912e+01 -3.8283693316e+02 4.2814412166e+02 1.7300000000e+02 0.0000e+00 -1.0000e+00
       21  1    1    2  504  501 +2.7774695390e+01 -8.7441312845e+00 -7.1603966059e+00 2.9986077027e+01 0.0000000000e+00 0.0000e+00 -1.0000e+00
       21  1    1    2  505  506 +1.0939177580e+01 +3.6554430350e+01 -4.2947402751e+01 5.7448858887e+01 0.0000000000e+00 0.0000e+00 -1.0000e+00
       21  1    1    2  506  504 +5.6156961204e+01 +2.0627047763e+01 +1.2112561270e+01 6.1039278597e+01 0.0000000000e+00 0.0000e+00 -1.0000e+00
<mgrwt>
<rscale>  5 0.20774023E+03</rscale>
<asrwt>0</asrwt>
<pdfrwt beam="1">  1       21 0.17295360E-01 0.20774023E+03</pdfrwt>
<pdfrwt beam="2">  1       21 0.14332094E+00 0.20774023E+03</pdfrwt>
<totfact> 0.10064060E+04</totfact>
</mgrwt>
</event>
<event>
 7      1 +1.2618638e+02 2.57295800e+02 7.54677100e-03 1.17141900e-01
       21 -1    0    0  506  502 +0.0000000000e+00 +0.0000000000e+00 +5.7306351299e+02 5.7306351299e+02 0.0000000000e+00 0.0000e+00 -1.0000e+00
       21 -1    0    0  501  503 -0.0000000000e+00 -0.0000000000e+00 -1.4074496627e+03 1.4074496627e+03 0.0000000000e+00 0.0000e+00 -1.0000e+00
        6  1    1    2  501    0 -1.5526814750e+02 +2.1303620973e+02 -4.6622944297e+02 5.6284235606e+02 1.7300000000e+02 0.0000e+00 -1.0000e+00
       -6  1    1    2    0  505 +8.8788028436e+00 -1.6115055089e+02 -3.8438698451e+02 4.5136535872e+02 1.7300000000e+02 0.0000e+00 -1.0000e+00
       21  1    1    2  504  502 +5.7966788435e+00 -8.0750548453e+01 +2.1118580650e+02 2.2617183164e+02 0.0000000000e+00 0.0000e+00 -1.0000e+00
       21  1    1    2  505  504 +1.0306524383e+02 -1.4560905426e+01 +2.6078648093e+02 2.8079183230e+02 0.0000000000e+00 0.0000e+00 -1.0000e+00
       21  1    1    2  506  503 +3.7527421983e+01 +4.3425795044e+01 -4.5574200968e+02 4.5934179699e+02 0.0000000000e+00 0.0000e+00 1.0000e+00
<mgrwt>
<rscale>  5 0.25729577E+03</rscale>
<asrwt>0</asrwt>
<pdfrwt beam="1">  1       21 0.88163617E-01 0.25729577E+03</pdfrwt>
<pdfrwt beam="2">  1       21 0.21653072E+00 0.25729577E+03</pdfrwt>
<totfact> 0.10730461E+02</totfact>
</mgrwt>
</event>
<event>
 7      1 +1.2618638e+02 2.40759300e+02 7.54677100e-03 1.12385500e-01
       21 -1    0    0  506  502 +0.0000000000e+00 +0.0000000000e+00 +7.7291417509e+02 7.7291417509e+02 0.0000000000e+00 0.0000e+00 1.0000e+00
       21 -1    0    0  502  503 -0.0000000000e+00 -0.0000000000e+00 -2.1626853031e+02 2.1626853031e+02 0.0000000000e+00 0.0000e+00 1.0000e+00
        6  1    1    2  501    0 -7.7315233877e+01 -6.1512875703e+01 +2.4479230974e+02 3.1561646689e+02 1.7300000000e+02 0.0000e+00 1.0000e+00
       -6  1    1    2    0  504 +2.5686201262e+02 +1.4180697643e+02 +2.9291625483e+02 4.4923962919e+02 1.7300000000e+02 0.0000e+00 1.0000e+00
       21  1    1    2  504  503 -1.2130062179e+02 -3.0372548625e+01 -1.6335132401e+01 1.2610776783e+02 0.0000000000e+00 0.0000e+00 1.0000e+00
       21  1    1    2  505  501 -3.7535766673e+01 -3.5466153089e+01 -3.7056582423e+00 5.1773677652e+01 0.0000000000e+00 0.0000e+00 1.0000e+00
       21  1    1    2  506  505 -2.0710390279e+01 -1.4455399018e+01 +3.8977870859e+01 4.6445163828e+01 0.0000000000e+00 0.0000e+00 1.0000e+00
<mgrwt>
<rscale>  5 0.24075932E+03</rscale>
<asrwt>0</asrwt>
<pdfrwt beam="1">  1       21 0.11890987E+00 0.24075932E+03</pdfrwt>
<pdfrwt beam="2">  1       21 0.33272082E-01 0.24075932E+03</pdfrwt>
<totfact> 0.45316376E+03</totfact>
</mgrwt>
</event>
<event>
 7      1 +1.2618638e+02 2.63217200e+02 7.54677100e-03 1.17369200e-01
       21 -1    0    0  504  502 +0.0000000000e+00 +0.0000000000e+00 +8.8002423411e+02 8.8002423411e+02 0.0000000000e+00 0.0000e+00 -1.0000e+00
       21 -1    0    0  506  503 -0.0000000000e+00 -0.0000000000e+00 -7.5731723801e+02 7.5731723801e+02 0.0000000000e+00 0.0000e+00 -1.0000e+00
        6  1    1    2  501    0 -2.3585385472e+02 -2.6789086586e+01 +3.5859452021e+02 4.6353395331e+02 1.7300000000e+02 0.0000e+00 -1.0000e+00
       -6  1    1    2    0  503 +1.5834552775e+02 +5.2773084904e+01 +2.9838233596e+02 3.8317009678e+02 1.7300000000e+02 0.0000e+00 -1.0000e+00
       21  1    1    2  504  505 +2.3801968133e+01 -8.5149005751e+01 -9.3208068172e+01 1.2847035004e+02 0.0000000000e+00 0.0000e+00 -1.0000e+00
       21  1    1    2  505  501 +7.1799560607e+00 +2.1826339178e+01 +1.0772456704e+02 1.1014773350e+02 0.0000000000e+00 0.0000e+00 -1.0000e+00
       21  1    1    2  506  502 +4.6526402770e+01 +3.7338668254e+01 -5.4878635895e+02 5.5201933849e+02 0.0000000000e+00 0.0000e+00 -1.0000e+00
<mgrwt>
<rscale>  5 0.26321722E+03</rscale>
<asrwt>0</asrwt>
<pdfrwt beam="1">  1       21 0.13538834E+00 0.26321722E+03</pdfrwt>
<pdfrwt beam="2">  1       21 0.11651034E+00 0.26321722E+03</pdfrwt>
<totfact> 0.20512404E+02</totfact>
</mgrwt>
</event>
<event>
 7      1 +1.2618638e+02 3.36364300e+02 7.54677100e-03 1.08697400e-01
       21 -1    0    0  503  502 +0.0000000000e+00 +0.0000000000e+00 +3.2239436267e+02 3.2239436267e+02 0.0000000000e+00 0.0000e+00 1.0000e+00
       21 -1    0    0  504  503 -0.0000000000e+00 -0.0000000000e+00 -7.2550390637e+02 7.2550390637e+02 0.0000000000e+00 0.0000e+00 -1.0000e+00
        6  1    1    2  501    0 -2.9196730707e+02 +1.3242739002e+00 -8.7996032612e+01 3.5059800892e+02 1.7300000000e+02 0.0000e+00 1.0000e+00
       -6  1    1    2    0  505 +2.7540633953e+02 -1.0221319794e+02 -3.4975365095e+01 3.4270755149e+02 1.7300000000e+02 0.0000e+00 -1.0000e+00
       21  1    1    2  504  506 -3.5713231170e+01 -3.8336530852e+00 -3.0793109296e+01 4.7311175812e+01 0.0000000000e+00 0.0000e+00 1.0000e+00
       21  1    1    2  505  502 -2.2173311087e+01 -7.7259180609e+00 -1.1335088440e+02 1.1575736922e+02 0.0000000000e+00 0.0000e+00 -1.0000e+00
       21  1    1    2  506  501 +7.4447509803e+01 +1.1244849518e+02 -1.3599415229e+02 1.9152416360e+02 0.0000000000e+00 0.0000e+00 -1.0000e+00
<mgrwt>
<rscale>  5 0.33636427E+03</rscale>
<asrwt>0</asrwt>
<pdfrwt beam="1">  1       21 0.49599133E-01 0.33636427E+03</pdfrwt>
<pdfrwt beam="2">  1       21 0.11161598E+00 0.33636427E+03</pdfrwt>
<totfact> 0.22143724E+03</totfact>
</mgrwt>
</event>
<event>
 7      1 +1.2618638e+02 2.37541700e+02 7.54677100e-03 1.16647100e-01
       21 -1    0    0  506  502 +0.0000000000e+00 +0.0000000000e+00 +5.1366889425e+02 5.1366889425e+02 0.0000000000e+00 0.0000e+00 -1.0000e+00
       21 -1    0    0  504  503 -0.0000000000e+00 -0.0000000000e+00 -1.1937498730e+03 1.1937498730e+03 0.0000000000e+00 0.0000e+00 1.0000e+00
        6  1    1    2  501    0 -1.7146915626e+01 -4.2403239406e+01 -1.2358101324e+02 2.1747026983e+02 1.7300000000e+02 0.0000e+00 1.0000e+00
       -6  1    1    2    0  503 -1.2348881179e+02 +6.6310507130e+01 -3.0068225613e+02 3.7414621359e+02 1.7300000000e+02 0.0000e+00 1.0000e+00
       21  1    1    2  504  505 +1.0880951670e+02 +1.3221670647e+02 +1.3755191891e+02 2.1963901928e+02 0.0000000000e+00 0.0000e+00 -1.0000e+00
       21  1    1    2  505  502 +3.1675662418e+00 +2.9862622577e+01 +2.3669721290e+02 2.3859459403e+02 0.0000000000e+00 0.0000e+00 -1.0000e+00
       21  1    1    2  506  501 +2.8658644471e+01 -1.8598659677e+02 -6.3006684116e+02 6.5756867049e+02 0.0000000000e+00 0.0000e+00 1.0000e+00
<mgrwt>
<rscale>  5 0.22093382E+03</rscale>
<asrwt>0</asrwt>
<pdfrwt beam="1">  1       21 0.79025985E-01 0.23754168E+03</pdfrwt>
<pdfrwt beam="2">  1       21 0.18365382E+00 0.23754168E+03</pdfrwt>
<totfact> 0.23050174E+02</totfact>
</mgrwt>
</event>
<event>
 7      1 +1.2618638e+02 3.56810800e+02 7.54677100e-03 1.16278100e-01
       21 -1    0    0  504  502 +0.0000000000e+00 +0.0000000000e+00 +3.8792359752e+02 3.8792359752e+02 0.0000000000e+00 0.0000e+00 1.0000e+00
       21 -1    0    0  501  503 -0.0000000000e+00 -0.0000000000e+00 -9.2638940592e+02 9.2638940592e+02 0.0000000000e+00 0.0000e+00 -1.0000e+00
        6  1    1    2  501    0 -3.3245001751e+02 -1.1264768614e+02 -4.4940357461e+02 5.9590694593e+02 1.7300000000e+02 0.0000e+00 -1.0000e+00
       -6  1    1    2    0  505 +1.0914084863e+02 +3.0024245409e+02 -1.4960869097e+01 3.6360704570e+02 1.7300000000e+02 0.0000e+00 1.0000e+00
       21  1    1    2  504  503 +7.8010981490e+01 -5.1189240913e+01 +5.0852373807e+01 1.0626389575e+02 0.0000000000e+00 0.0000e+00 1.0000e+00
       21  1    1    2  505  506 +8.3117749842e+01 -1.0702769280e+02 -1.1750369072e+02 1.7936165894e+02 0.0000000000e+00 0.0000e+00 1.0000e+00
       21  1    1    2  506  502 +6.2180437552e+01 -2.9377834243e+01 -7.4500477866e+00 6.9173457128e+01 0.0000000000e+00 0.0000e+00 1.0000e+00
<mgrwt>
<rscale>  5 0.35681079E+03</rscale>
<asrwt>0</asrwt>
<pdfrwt beam="1">  1       21 0.59680554E-01 0.35681079E+03</pdfrwt>
<pdfrwt beam="2">  1       21 0.14252145E+00 0.35681079E+03</pdfrwt>
<totfact> 0.78888527E+02</totfact>
</mgrwt>
</event>
<event>
 7      1 +1.2618638e+02 2.67419800e+02 7.54677100e-03 1.17127400e-01
       21 -1    0    0  505  502 +0.0000000000e+00 +0.0000000000e+00 +7.2023619190e+02 7.2023619190e+02 0.0000000000e+00 0.0000e+00 1.0000e+00
       21 -1    0    0  501  503 -0.0000000000e+00 -0.0000000000e+00 -7.5095480026e+02 7.5095480026e+02 0.0000000000e+00 0.0000e+00 1.0000e+00
        6  1    1    2  501    0 +2.1400264731e+00 -2.0365855986e+02 +4.0760636864e+02 4.8739444034e+02 1.7300000000e+02 0.0000e+00 1.0000e+00
       -6  1    1    2    0  502 -7.4974733502e+01 +1.9906474501e+02 +1.7714042469e+02 3.2642872642e+02 1.7300000000e+02 0.0000e+00 1.0000e+00
       21  1    1    2  504  506 +3.1619490970e+01 +3.5222632888e+01 -8.1952247518e+01 9.4639299184e+01 0.0000000000e+00 0.0000e+00 1.0000e+00
       21  1    1    2  505  504 +6.6997167135e+00 +3.6506034110e+01 -1.7167031951e+01 4.0893565710e+01 0.0000000000e+00 0.0000e+00 1.0000e+00
       21  1    1    2  506  503 +3.4515499344e+01 -6.7134852152e+01 -5.1634612222e+02 5.2183496050e+02 0.0000000000e+00 0.0000e+00 1.0000e+00
<mgrwt>
<rscale>  5 0.26741983E+03</rscale>
<asrwt>0</asrwt>
<pdfrwt beam="1">  1       21 0.11080557E+00 0.26741983E+03</pdfrwt>
<pdfrwt beam="2">  1       21 0.11553151E+00 0.26741983E+03</pdfrwt>
<totfact> 0.34513421E+02</totfact>
</mgrwt>
</event>
<event>
 7      1 +1.2618638e+02 2.41003500e+02 7.54677100e-03 1.07499700e-01
       21 -1    0    0  505  502 +0.0000000000e+00 +0.0000000000e+00 +1.2123624831e+03 1.2123624831e+03 0.0000000000e+00 0.0000e+00 1.0000e+00
       21 -1    0    0  501  503 -0.0000000000e+00 -0.0000000000e+00 -5.7664488201e+02 5.7664488201e+02 0.0000000000e+00 0.0000e+00 1.0000e+00
        6  1    1    2  501    0 -1.8137993113e+02 -4.8864499617e+01 -1.8721454262e+02 3.1664602272e+02 1.7300000000e+02 0.0000e+00 1.0000e+00
       -6  1    1    2    0  506 +4.3902561541e+01 +2.0352057708e+02 -3.5795325347e+00 2.7072102478e+02 1.7300000000e+02 0.0000e+00 1.0000e+00
       21  1    1    2  504  503 +5.4306293626e+01 +1.2693544438e+01 -4.1187022326e+01 6.9330155098e+01 0.0000000000e+00 0.0000e+00 1.0000e+00
       21  1    1    2  505  504 -6.3693019316e+01 +3.0009854180e+00 -1.1104794241e+02 1.2805253663e+02 0.0000000000e+00 0.0000e+00 1.0000e+00
       21  1    1    2  506  502 +1.4686409528e+02 -1.7035060732e+02 +9.7874664096e+02 1.0042576259e+03 0.0000000000e+00 0.0000e+00 1.0000e+00
<mgrwt>
<rscale>  5 0.24100352E+03</rscale>
<asrwt>0</asrwt>
<pdfrwt beam="1">  1       21 0.18651731E+00 0.24100352E+03</pdfrwt>
<pdfrwt beam="2">  1       21 0.88714597E-01 0.24100352E+03</pdfrwt>
<totfact> 0.16845968E+02</totfact>
</mgrwt>
</event>
<event>
 7      1 +1.2618638e+02 2.30284400e+02 7.54677100e-03 1.17407200e-01
       21 -1    0    0  505  502 +0.0000000000e+00 +0.0000000000e+00 +4.1556102405e+02 4.1556102405e+02 0.0000000000e+00 0.0000e+00 1.0000e+00
       21 -1    0    0  501  503 -0.0000000000e+00 -0.0000000000e+00 -2.8948514437e+02 2.8948514437e+02 0.0000000000e+00 0.0000e+00 1.0000e+00
        6  1    1    2  501    0 -1.8062532495e+02 +9.1219503806e+01 +1.1780319108e+01 2.6648504987e+02 1.7300000000e+02 0.0000e+00 -1.0000e+00
       -6  1    1    2    0  506 +1.1337217130e+02 +5.2449357527e-02 +4.4294675675e+01 2.1152841480e+02 1.7300000000e+02 0.0000e+00 -1.0000e+00
       21  1    1    2  504  502 +3.1189844380e+01 -7.2654071818e+01 +2.8164466662e+01 8.3932459314e+01 0.0000000000e+00 0.0000e+00 1.0000e+00
       21  1    1    2  505  503 -2.3506597698e+01 +2.8761235020e+01 +5.4485070095e+01 6.5942335706e+01 0.0000000000e+00 0.0000e+00 1.0000e+00
       21  1    1    2  506  504 +5.9569906973e+01 -4.7379116365e+01 -1.2648651857e+01 7.7157908720e+01 0.0000000000e+00 0.0000e+00 1.0000e+00
<mgrwt>
<rscale>  5 0.23028445E+03</rscale>
<asrwt>0</asrwt>
<pdfrwt beam="1">  1       21 0.63932465E-01 0.23028445E+03</pdfrwt>
<pdfrwt beam="2">  1       21 0.44536176E-01 0.23028445E+03</pdfrwt>
<totfact> 0.10674145E+04</totfact>
</mgrwt>
</event>
<event>
 7      1 +1.2618638e+02 3.12877000e+02 7.54677100e-03 1.13038500e-01
       21 -1    0    0  505  502 +0.0000000000e+00 +0.0000000000e+00 +7.3057915530e+02 7.3057915530e+02 0.0000000000e+00 0.0000e+00 -1.0000e+00
       21 -1    0    0  504  503 -0.0000000000e+00 -0.0000000000e+00 -3.8077275993e+02 3.8077275993e+02 0.0000000000e+00 0.0000e+00 -1.0000e+00
        6  1    1    2  501    0 -1.6973020076e+02 -2.2273352411e+02 -1.1401151907e+02 3.4834780076e+02 1.7300000000e+02 0.0000e+00 -1.0000e+00
       -6  1    1    2    0  503 +1.1701698157e+02 +2.5616581317e+02 +3.8732939234e+02 5.0918263520e+02 1.7300000000e+02 0.0000e+00 -1.0000e+00
       21  1    1    2  504  502 -2.2819165005e+01 -2.8396445619e+01 +1.0646712685e+02 1.1252698128e+02 0.0000000000e+00 0.0000e+00 -1.0000e+00
       21  1    1    2  505  506 -4.2951447584e+00 -4.6266139036e+01 +3.5277201283e-01 4.6466421617e+01 0.0000000000e+00 0.0000e+00 1.0000e+00
       21  1    1    2  506  501 +7.9827528951e+01 +4.1230295597e+01 -3.0331376761e+01 9.4828076379e+01 0.0000000000e+00 0.0000e+00 1.0000e+00
<mgrwt>
<rscale>  5 0.31287698E+03</rscale>
<asrwt>0</asrwt>
<pdfrwt beam="1">  1       21 0.11239679E+00 0.31287698E+03</pdfrwt>
<pdfrwt beam="2">  1       21 0.58580425E-01 0.31287698E+03</pdfrwt>
<totfact> 0.15452668E+03</totfact>
</mgrwt>
</event>
<event>
 7      1 +1.2618638e+02 4.79583600e+02 7.54677100e-03 1.12379100e-01
       21 -1    0    0  505  502 +0.0000000000e+00 +0.0000000000e+00 +9.9418161112e+02 9.9418161112e+02 0.0000000000e+00 0.0000e+00 1.0000e+00
       21 -1    0    0  501  503 -0.0000000000e+00 -0.0000000000e+00 -1.3381028362e+03 1.3381028362e+03 0.0000000000e+00 0.0000e+00 -1.0000e+00
        6  1    1    2  501    0 -3.2179729821e+02 -2.5030345479e+02 -2.3460419274e+02 5.0117207411e+02 1.7300000000e+02 0.0000e+00 1.0000e+00
       -6  1    1    2    0  506 -1.0784662344e+02 +4.3627324238e+02 -8.2471008496e+02 9.5500835621e+02 1.7300000000e+02 0.0000e+00 -1.0000e+00
       21  1    1    2  504  503 +5.7112892295e+01 -6.8235222392e+01 +1.4422142989e+02 1.6946311953e+02 0.0000000000e+00 0.0000e+00 1.0000e+00
       21  1    1    2  505  504 +4.4549568544e+01 +3.0192775806e+01 +5.0882753722e+01 7.4062962368e+01 0.0000000000e+00 0.0000e+00 1.0000e+00
       21  1    1    2  506  502 +3.2798146081e+02 -1.4792734101e+02 +5.2028886897e+02 6.3257793514e+02 0.0000000000e+00 0.0000e+00 1.0000e+00
<mgrwt>
<rscale>  5 0.46824417E+03</rscale>
<asrwt>0</asrwt>
<pdfrwt beam="1">  1       21 0.15295102E+00 0.47958360E+03</pdfrwt>
<pdfrwt beam="2">  1       21 0.20586198E+00 0.47958360E+03</pdfrwt>
<totfact> 0.26354564E+01</totfact>
</mgrwt>
</event>
<event>
 7      1 +1.2618638e+02 2.30067400e+02 7.54677100e-03 9.91481900e-02
       21 -1    0    0  501  502 +0.0000000000e+00 +0.0000000000e+00 +8.8728177851e+02 8.8728177851e+02 0.0000000000e+00 0.0000e+00 1.0000e+00
       21 -1    0    0  505  503 -0.0000000000e+00 -0.0000000000e+00 -7.4650958526e+02 7.4650958526e+02 0.0000000000e+00 0.0000e+00 1.0000e+00
        6  1    1    2  501    0 -8.9291463764e+00 +6.0813568620e+01 -6.8625078850e+01 1.9600107456e+02 1.7300000000e+02 0.0000e+00 1.0000e+00
       -6  1    1    2    0  506 -4.4133558707e+01 -1.5818095542e+02 +7.9793804640e+02 8.3282838061e+02 1.7300000000e+02 0.0000e+00 1.0000e+00
       21  1    1    2  504  502 +4.3811511786e+01 +5.2281979184e+01 -3.0502194388e+02 3.1255597924e+02 0.0000000000e+00 0.0000e+00 1.0000e+00
       21  1    1    2  505  504 +1.1757562303e+00 +2.3899077521e+01 -3.2464196046e+01 4.0329546662e+01 0.0000000000e+00 0.0000e+00 -1.0000e+00
       21  1    1    2  506  503 +8.0754370673e+00 +2.1186330093e+01 -2.5105463438e+02 2.5207638269e+02 0.0000000000e+00 0.0000e+00 1.0000e+00
<mgrwt>
<rscale>  5 0.23006737E+03</rscale>
<asrwt>0</asrwt>
<pdfrwt beam="1">  1       21 0.13650489E+00 0.23006737E+03</pdfrwt>
<pdfrwt beam="2">  1       21 0.11484763E+00 0.23006737E+03</pdfrwt>
<totfact> 0.21499350E+02</totfact>
</mgrwt>
</event>
<event>
 7      1 +1.2618638e+02 2.97533400e+02 7.54677100e-03 1.17369200e-01
       21 -1    0    0  504  502 +0.0000000000e+00 +0.0000000000e+00 +1.4737763318e+02 1.4737763318e+02 0.0000000000e+00 0.0000e+00 -1.0000e+00
       21 -1    0    0  506  503 -0.0000000000e+00 -0.0000000000e+00 -2.2513258031e+03 2.2513258031e+03 0.0000000000e+00 0.0000e+00 -1.0000e+00
        6  1    1    2  501    0 +2.4160021106e+02 -6.4433808493e+00 -1.4681850217e+03 1.4979681028e+03 1.7300000000e+02 0.0000e+00 -1.0000e+00
       -6  1    1    2    0  503 -5.8531669389e+01 +9.8185108456e+01 -4.0846290801e+02 4.5807992650e+02 1.7300000000e+02 0.0000e+00 -1.0000e+00
       21  1    1    2  504  505 -2.4035938902e+02 -3.1211467165e+01 -5.3114243908e+01 2.4812882638e+02 0.0000000000e+00 0.0000e+00 -1.0000e+00
       21  1    1    2  505  501 +2.8210903778e+01 -1.4685898192e+01 -7.4766704774e+01 8.1250174403e+01 0.0000000000e+00 0.0000e+00 -1.0000e+00
       21  1    1    2  506  502 +2.9079943570e+01 -4.5844362250e+01 -9.9419291552e+01 1.1327640620e+02 0.0000000000e+00 0.0000e+00 -1.0000e+00
<mgrwt>
<rscale>  5 0.26890142E+03</rscale>
<asrwt>0</asrwt>
<pdfrwt beam="1">  1       21 0.22673484E-01 0.29753343E+03</pdfrwt>
<pdfrwt beam="2">  1       21 0.34635778E+00 0.29753343E+03</pdfrwt>
<totfact> 0.29341075E+02</totfact>
</mgrwt>
</event>
<event>
 7      1 +1.2618638e+02 2.08802800e+02 7.54677100e-03 1.12385500e-01
       21 -1    0    0  506  502 +0.0000000000e+00 +0.0000000000e+00 +4.3493526541e+02 4.3493526541e+02 0.0000000000e+00 0.0000e+00 1.0000e+00
       21 -1    0    0  504  503 -0.0000000000e+00 -0.0000000000e+00 -8.1922037927e+02 8.1922037927e+02 0.0000000000e+00 0.0000e+00 1.0000e+00
        6  1    1    2  501    0 -8.6299892338e+01 +1.5480032716e+02 -9.1933524139e+00 2.4783932383e+02 1.7300000000e+02 0.0000e+00 1.0000e+00
       -6  1    1    2    0  503 +6.8725141131e+01 -1.2860344072e+01 +2.1196770432e+02 2.8239660258e+02 1.7300000000e+02 0.0000e+00 1.0000e+00
       21  1    1    2  504  502 -3.9840483443e+00 -4.6346607064e+01 -3.3579871950e+02 3.3900539914e+02 0.0000000000e+00 0.0000e+00 1.0000e+00
       21  1    1    2  505  501 +5.0677165475e-01 -2.5260474281e+01 -2.9722483849e+02 2.9829675324e+02 0.0000000000e+00 0.0000e+00 1.0000e+00
       21  1    1    2  506  505 +2.1052027896e+01 -7.0332901741e+01 +4.5964092230e+01 8.6617565888e+01 0.0000000000e+00 0.0000e+00 1.0000e+00
<mgrwt>
<rscale>  5 0.20880282E+03</rscale>
<asrwt>0</asrwt>
<pdfrwt beam="1">  1       21 0.66913118E-01 0.20880282E+03</pdfrwt>
<pdfrwt beam="2">  1       21 0.12603390E+00 0.20880282E+03</pdfrwt>
<totfact> 0.94053302E+02</totfact>
</mgrwt>
</event>
<event>
 7      1 +1.2618638e+02 1.74571500e+02 7.54677100e-03 1.07345900e-01
       21 -1    0    0  505  502 +0.0000000000e+00 +0.0000000000e+00 +1.5362030260e+02 1.5362030260e+02 0.0000000000e+00 0.0000e+00 -1.0000e+00
       21 -1    0    0  506  503 -0.0000000000e+00 -0.0000000000e+00 -5.4948092891e+02 5.4948092891e+02 0.0000000000e+00 0.0000e+00 -1.0000e+00
        6  1    1    2  501    0 -1.0419405372e+01 +7.8424824949e-01 -2.5471355331e+02 3.0808630819e+02 1.7300000000e+02 0.0000e+00 -1.0000e+00
       -6  1    1    2    0  504 -9.5306257181e+00 +6.6713291734e+01 -2.8684125110e+01 1.8786504506e+02 1.7300000000e+02 0.0000e+00 -1.0000e+00
       21  1    1    2  504  503 -3.7495908441e+01 +1.2580672887e+01 -9.6687590443e+01 1.0446390107e+02 0.0000000000e+00 0.0000e+00 -1.0000e+00
       21  1    1    2  505  501 +3.2512415099e+01 -6.3731214115e+01 -8.9774963953e+00 7.2106311997e+01 0.0000000000e+00 0.0000e+00 1.0000e+00
       21  1    1    2  506  502 +2.4933524432e+01 -1.6346998754e+01 -6.7978610540e+00 3.0579665201e+01 0.0000000000e+00 0.0000e+00 1.0000e+00
<mgrwt>
<rscale>  5 0.17457148E+03</rscale>
<asrwt>0</asrwt>
<pdfrwt beam="1">  1       21 0.23633893E-01 0.17457148E+03</pdfrwt>
<pdfrwt beam="2">  1       21 0.84535528E-01 0.17457148E+03</pdfrwt>
<totfact> 0.20680728E+04</totfact>
</mgrwt>
</event>
<event>
 7      1 +1.2618638e+02 2.02494100e+02 7.54677100e-03 1.03887100e-01
       21 -1    0    0  501  502 +0.0000000000e+00 +0.0000000000e+00 +2.8090217081e+02 2.8090217081e+02 0.0000000000e+00 0.0000e+00 -1.0000e+00
       21 -1    0    0  506  503 -0.0000000000e+00 -0.0000000000e+00 -2.2708631648e+03 2.2708631648e+03 0.0000000000e+00 0.0000e+00 1.0000e+00
        6  1    1    2  501    0 +2.5350259474e+01 +1.0844580309e+02 +1.9681933979e+02 2.8472790586e+02 1.7300000000e+02 0.0000e+00 -1.0000e+00
       -6  1    1    2    0  503 -4.5566444055e+01 -6.3122809128e+01 -1.9619693330e+02 2.7291578644e+02 1.7300000000e+02 0.0000e+00 1.0000e+00
       21  1    1    2  504  505 +2.6545833532e+01 -1.0557424256e+01 -1.3327209801e+03 1.3330271383e+03 0.0000000000e+00 0.0000e+00 1.0000e+00
       21  1    1    2  505  502 -2.4347775522e+01 -2.5118656447e+01 -2.2075944287e+02 2.2351396532e+02 0.0000000000e+00 0.0000e+00 1.0000e+00
       21  1    1    2  506  504 +1.8018126571e+01 -9.6469132574e+00 -4.3710297750e+02 4.3758053974e+02 0.0000000000e+00 0.0000e+00 1.0000e+00
<mgrwt>
<rscale>  5 0.20249405E+03</rscale>
<asrwt>0</asrwt>
<pdfrwt beam="1">  1       21 0.43215718E-01 0.20249405E+03</pdfrwt>
<pdfrwt beam="2">  1       21 0.34936357E+00 0.20249405E+03</pdfrwt>
<totfact> 0.89284300E+01</totfact>
</mgrwt>
</event>
<event>
 7      1 +1.2618638e+02 2.88191300e+02 7.54677100e-03 1.16794100e-01
       21 -1    0    0  504  502 +0.0000000000e+00 +0.0000000000e+00 +1.9041315619e+03 1.9041315619e+03 0.0000000000e+00 0.0000e+00 -1.0000e+00
       21 -1    0    0  505  503 -0.0000000000e+00 -0.0000000000e+00 -3.6842017500e+02 3.6842017500e+02 0.0000000000e+00 0.0000e+00 1.0000e+00
        6  1    1    2  501    0 +7.7790034338e+00 -9.0923521497e+01 -1.0040338756e+02 2.1985777196e+02 1.7300000000e+02 0.0000e+00 -1.0000e+00
       -6  1    1    2    0  506 -1.7821095970e+02 -1.4737733398e+02 +1.3761027143e+02 3.1991375639e+02 1.7300000000e+02 0.0000e+00 1.0000e+00
       21  1    1    2  504  503 +4.1942296153e+01 -3.5171386840e+01 +9.9833814419e+02 9.9983760321e+02 0.0000000000e+00 0.0000e+00 1.0000e+00
       21  1    1    2  505  501 +2.1889587148e+02 +9.9581090262e+01 +5.5214832728e+01 2.4673968842e+02 0.0000000000e+00 0.0000e+00 -1.0000e+00
       21  1    1    2  506  502 -9.0406211367e+01 +1.7389115205e+02 +4.4495152616e+02 4.8620291695e+02 0.0000000000e+00 0.0000e+00 1.0000e+00
<mgrwt>
<rscale>  5 0.25879866E+03</rscale>
<asrwt>0</asrwt>
<pdfrwt beam="1">  1       21 0.29294331E+00 0.28819132E+03</pdfrwt>
<pdfrwt beam="2">  1       21 0.56680028E-01 0.28819132E+03</pdfrwt>
<totfact> 0.96727674E+01</totfact>
</mgrwt>
</event>
<event>
 7      1 +1.2618638e+02 3.36204500e+02 7.54677100e-03 1.17407200e-01
       21 -1    0    0  505  502 +0.0000000000e+00 +0.0000000000e+00 +1.6344606070e+02 1.6344606070e+02 0.0000000000e+00 0.0000e+00 -1.0000e+00
       21 -1    0    0  501  503 -0.0000000000e+00 -0.0000000000e+00 -1.6394925590e+03 1.6394925590e+03 0.0000000000e+00 0.0000e+00 -1.0000e+00
        6  1    1    2  501    0 +1.8707687048e+01 +2.8958414513e+02 -4.0332874853e+02 5.2612929405e+02 1.7300000000e+02 0.0000e+00 -1.0000e+00
       -6  1    1    2    0  506 +3.9989222939e+01 -3.0183905374e+02 -3.0478862848e+02 4.6425322870e+02 1.7300000000e+02 0.0000e+00 -1.0000e+00
       21  1    1    2  504  502 -2.9041395193e+00 +5.6931609265e+01 -3.1009047361e+01 6.4893783817e+01 0.0000000000e+00 0.0000e+00 -1.0000e+00
       21  1    1    2  505  503 -1.9706233067e+01 -3.2020422621e+01 -6.8426291995e+01 7.8075607732e+01 0.0000000000e+00 0.0000e+00 1.0000e+00
       21  1    1    2  506  504 -3.6086537401e+01 -1.2656278040e+01 -6.6849378193e+02 6.6958670539e+02 0.0000000000e+00 0.0000e+00 -1.0000e+00
<mgrwt>
<rscale>  5 0.33620447E+03</rscale>
<asrwt>0</asrwt>
<pdfrwt beam="1">  1       21 0.25145547E-01 0.33620447E+03</pdfrwt>
<pdfrwt beam="2">  1       21 0.25222963E+00 0.33620447E+03</pdfrwt>
<totfact> 0.84498726E+02</totfact>
</mgrwt>
</event>
<event>
 7      1 +1.2618638e+02 1.89289500e+02 7.54677100e-03 1.12724800e-01
       21 -1    0    0  505  502 +0.0000000000e+00 +0.0000000000e+00 +9.0125114154e+01 9.0125114154e+01 0.0000000000e+00 0.0000e+00 -1.0000e+00
       21 -1    0    0  502  503 -0.0000000000e+00 -0.0000000000e+00 -1.7006568470e+03 1.7006568470e+03 0.0000000000e+00 0.0000e+00 -1.0000e+00
        6  1    1    2  501    0 -9.6904823868e+01 -1.0487294063e+02 -9.3931068662e+02 9.6572379310e+02 1.7300000000e+02 0.0000e+00 -1.0000e+00
       -6  1    1    2    0  503 -6.2642582010e+00 +1.0422368853e+02 -1.5406210260e+02 2.5409830704e+02 1.7300000000e+02 0.0000e+00 -1.0000e+00
       21  1    1    2  504  506 +1.2703937815e+01 +2.6668179615e+01 -1.3335491407e+02 1.3658738942e+02 0.0000000000e+00 0.0000e+00 -1.0000e+00
       21  1    1    2  505  504 +4.6218852669e+01 +4.2475880153e+01 -3.3173769638e+02 3.3762446880e+02 0.0000000000e+00 0.0000e+00 -1.0000e+00
       21  1    1    2  506  501 +4.4246291585e+01 -6.8494807668e+01 -5.2066333190e+01 9.6748002813e+01 0.0000000000e+00 0.0000e+00 -1.0000e+00
<mgrwt>
<rscale>  5 0.18928950E+03</rscale>
<asrwt>0</asrwt>
<pdfrwt beam="1">  1       21 0.13865403E-01 0.18928950E+03</pdfrwt>
<pdfrwt beam="2">  1       21 0.26163950E+00 0.18928950E+03</pdfrwt>
<totfact> 0.25822187E+03</totfact>
</mgrwt>
</event>
<event>
 7      1 +1.2618638e+02 2.42355400e+02 7.54677100e-03 1.17369200e-01
       21 -1    0    0  504  502 +0.0000000000e+00 +0.0000000000e+00 +1.0723773740e+03 1.0723773740e+03 0.0000000000e+00 0.0000e+00 -1.0000e+00
       21 -1    0    0  506  503 -0.0000000000e+00 -0.0000000000e+00 -3.3972054320e+02 3.3972054320e+02 0.0000000000e+00 0.0000e+00 -1.0000e+00
        6  1    1    2  501    0 -6.1190178887e+01 +1.4013359109e+02 -1.2150328782e+01 2.3121049248e+02 1.7300000000e+02 0.0000e+00 -1.0000e+00
       -6  1    1    2    0  503 +6.7622748285e+01 -1.6838620677e+02 -1.2997637150e+02 2.8239973064e+02 1.7300000000e+02 0.0000e+00 -1.0000e+00
       21  1    1    2  504  505 +2.0945769487e+01 -2.1449896640e+00 +5.3729662375e+01 5.7707909848e+01 0.0000000000e+00 0.0000e+00 -1.0000e+00
       21  1    1    2  505  501 +8.3954731538e+00 -2.0068184914e+01 +7.3214687191e+02 7.3246997076e+02 0.0000000000e+00 0.0000e+00 -1.0000e+00
       21  1    1    2  506  502 -3.5773812039e+01 +5.0465790265e+01 +8.8906996776e+01 1.0830981346e+02 0.0000000000e+00 0.0000e+00 -1.0000e+00
<mgrwt>
<rscale>  5 0.24235545E+03</rscale>
<asrwt>0</asrwt>
<pdfrwt beam="1">  1       21 0.16498113E+00 0.24235545E+03</pdfrwt>
<pdfrwt beam="2">  1       21 0.52264699E-01 0.24235545E+03</pdfrwt>
<totfact> 0.76550557E+02</totfact>
</mgrwt>
</event>
<event>
 7      1 +1.2618638e+02 2.09896300e+02 7.54677100e-03 9.91481900e-02
       21 -1    0    0  501  502 +0.0000000000e+00 +0.0000000000e+00 +5.4762201516e+02 5.4762201516e+02 0.0000000000e+00 0.0000e+00 1.0000e+00
       21 -1    0    0  505  503 -0.0000000000e+00 -0.0000000000e+00 -4.6518962086e+02 4.6518962086e+02 0.0000000000e+00 0.0000e+00 -1.0000e+00
        6  1    1    2  501    0 +4.0520655363e+01 -1.4560313244e+02 -6.1656738040e+01 2.3785026599e+02 1.7300000000e+02 0.0000e+00 -1.0000e+00
       -6  1    1    2    0  506 -1.2130626041e+02 -1.1070062823e+01 +3.5339437411e+02 4.1189117344e+02 1.7300000000e+02 0.0000e+00 1.0000e+00
       21  1    1    2  504  502 -1.0907104823e+01 +3.9351724997e+01 +3.0957875089e+01 5.1243665227e+01 0.0000000000e+00 0.0000e+00 1.0000e+00
       21  1    1    2  505  504 +4.5520869254e+01 +1.2899694398e+02 -1.1814447416e+02 1.8074976589e+02 0.0000000000e+00 0.0000e+00 -1.0000e+00
       21  1    1    2  506  503 +4.6171840619e+01 -1.1675473722e+01 -1.2211864270e+02 1.3107676547e+02 0.0000000000e+00 0.0000e+00 -1.0000e+00
<mgrwt>
<rscale>  5 0.20989627E+03</rscale>
<asrwt>0</asrwt>
<pdfrwt beam="1">  1       21 0.84249541E-01 0.20989627E+03</pdfrwt>
<pdfrwt beam="2">  1       21 0.71567634E-01 0.20989627E+03</pdfrwt>
<totfact> 0.21250272E+03</totfact>
</mgrwt>
</event>
<event>
 7      1 +1.2618638e+02 3.44055700e+02 7.54677100e-03 1.17369200e-01
       21 -1    0    0  504  502 +0.0000000000e+00 +0.0000000000e+00 +3.2009186452e+02 3.2009186452e+02 0.0000000000e+00 0.0000e+00 1.0000e+00
       21 -1    0    0  506  503 -0.0000000000e+00 -0.0000000000e+00 -1.8199161629e+03 1.8199161629e+03 0.0000000000e+00 0.0000e+00 1.0000e+00
        6  1    1    2  501    0 -1.8517463275e+02 -1.1515532022e+02 -1.8486000720e+02 3.3414460141e+02 1.7300000000e+02 0.0000e+00 -1.0000e+00
       -6  1    1    2    0  503 -5.7698171758e+01 -1.2046044720e+02 -3.2672215624e+02 3.9308544331e+02 1.7300000000e+02 0.0000e+00 1.0000e+00
       21  1    1    2  504  505 +2.7572244631e+02 +2.2628687445e+02 +4.1964508889e+01 3.5915127308e+02 0.0000000000e+00 0.0000e+00 1.0000e+00
       21  1    1    2  505  501 -2.2425610660e+01 -1.8127575702e+01 -6.5779378938e+00 2.9576786188e+01 0.0000000000e+00 0.0000e+00 -1.0000e+00
       21  1    1    2  506  502 -1.0424031146e+01 +2.7456468671e+01 -1.0236287059e+03 1.0240499234e+03 0.0000000000e+00 0.0000e+00 1.0000e+00
<mgrwt>
<rscale>  5 0.30587108E+03</rscale>
<asrwt>0</asrwt>
<pdfrwt beam="1">  1       21 0.49244901E-01 0.34405571E+03</pdfrwt>
<pdfrwt beam="2">  1       21 0.27998711E+00 0.34405571E+03</pdfrwt>
<totfact> 0.14771203E+02</totfact>
</mgrwt>
</event>
<event>
 7      1 +1.2618638e+02 2.70924200e+02 7.54677100e-03 1.13461400e-01
       21 -1    0    0  504  502 +0.0000000000e+00 +0.0000000000e+00 +5.2058488324e+02 5.2058488324e+02 0.0000000000e+00 0.0000e+00 -1.0000e+00
       21 -1    0    0  501  503 -0.0000000000e+00 -0.0000000000e+00 -8.8283503849e+02 8.8283503849e+02 0.0000000000e+00 0.0000e+00 -1.0000e+00
        6  1    1    2  501    0 -1.1626316959e+02 +2.5657383835e+01 -2.9663481477e+02 3.6345101359e+02 1.7300000000e+02 0.0000e+00 -1.0000e+00
       -6  1    1    2    0  505 -3.9572905150e+01 +3.0686323053e+01 -3.1043727305e+02 3.5889826656e+02 1.7300000000e+02 0.0000e+00 1.0000e+00
       21  1    1    2  504  506 -1.2834446866e+02 -1.9333524924e+02 +5.6127688376e+01 2.3874911233e+02 0.0000000000e+00 0.0000e+00 -1.0000e+00
       21  1    1    2  505  502 +2.4348476824e+02 +2.0572769552e+02 +1.6537896879e+02 3.5910850782e+02 0.0000000000e+00 0.0000e+00 -1.0000e+00
       21  1    1    2  506  503 +4.0695775157e+01 -6.8736153166e+01 +2.3315275406e+01 8.3213021427e+01 0.0000000000e+00 0.0000e+00 -1.0000e+00
<mgrwt>
<rscale>  5 0.24428398E+03</rscale>
<asrwt>0</asrwt>
<pdfrwt beam="1">  1       21 0.80089983E-01 0.27092420E+03</pdfrwt>
<pdfrwt beam="2">  1       21 0.13582077E+00 0.27092420E+03</pdfrwt>
<totfact> 0.49233401E+02</totfact>
</mgrwt>
</event>
<event>
 7      1 +1.2618638e+02 1.84126000e+02 7.54677100e-03 1.12385500e-01
       21 -1    0    0  506  502 +0.0000000000e+00 +0.0000000000e+00 +1.3508850225e+03 1.3508850225e+03 0.0000000000e+00 0.0000e+00 1.0000e+00
       21 -1    0    0  504  503 -0.0000000000e+00 -0.0000000000e+00 -2.4759552146e+02 2.4759552146e+02 0.0000000000e+00 0.0000e+00 1.0000e+00
        6  1    1    2  501    0 -6.4129540472e+01 -9.0894058863e+01 +4.5793951234e+02 5.0200789322e+02 1.7300000000e+02 0.0000e+00 1.0000e+00
       -6  1    1    2    0  503 +3.6218855670e+01 +1.5878800068e+00 +5.2594163774e+02 5.5484946893e+02 1.7300000000e+02 0.0000e+00 1.0000e+00
       21  1    1    2  504  502 -4.5062965762e+01 +7.3312987139e+01 -1.5211908413e+02 1.7477322656e+02 0.0000000000e+00 0.0000e+00 1.0000e+00
       21  1    1    2  505  501 +4.0730873901e+01 +3.4715956672e+01 -3.1124072094e+01 6.1910496687e+01 0.0000000000e+00 0.0000e+00 1.0000e+00
       21  1    1    2  506  505 +3.2242776663e+01 -1.8722764954e+01 +3.0265150716e+02 3.0493945852e+02 0.0000000000e+00 0.0000e+00 -1.0000e+00
<mgrwt>
<rscale>  5 0.18412604E+03</rscale>
<asrwt>0</asrwt>
<pdfrwt beam="1">  1       21 0.20782846E+00 0.18412604E+03</pdfrwt>
<pdfrwt beam="2">  1       21 0.38091619E-01 0.18412604E+03</pdfrwt>
<totfact> 0.80402388E+02</totfact>
</mgrwt>
</event>
<event>
 7      1 +1.2618638e+02 1.83049600e+02 7.54677100e-03 1.16852600e-01
       21 -1    0    0  506  502 +0.0000000000e+00 +0.0000000000e+00 +1.1169738644e+03 1.1169738644e+03 0.0000000000e+00 0.0000e+00 -1.0000e+00
       21 -1    0    0  504  503 -0.0000000000e+00 -0.0000000000e+00 -2.7902178631e+02 2.7902178631e+02 0.0000000000e+00 0.0000e+00 -1.0000e+00
        6  1    1    2  501    0 +4.3413562358e+00 +5.6509415814e+01 +2.3843743816e+02 2.9998928875e+02 1.7300000000e+02 0.0000e+00 -1.0000e+00
       -6  1    1    2    0  502 -5.3580936825e+01 +8.5220912787e+01 +8.0530683479e+02 8.2980818201e+02 1.7300000000e+02 0.0000e+00 -1.0000e+00
       21  1    1    2  504  501 +4.9012074601e-01 -3.5949000342e+01 -1.3822214096e+01 3.8517845818e+01 0.0000000000e+00 0.0000e+00 -1.0000e+00
       21  1    1    2  505  503 +2.9456193723e+00 -2.3234524447e+01 -6.7584295973e+01 7.1527315495e+01 0.0000000000e+00 0.0000e+00 1.0000e+00
       21  1    1    2  506  505 +4.5803840471e+01 -8.2546803813e+01 -1.2438568484e+02 1.5615301859e+02 0.0000000000e+00 0.0000e+00 -1.0000e+00
<mgrwt>
<rscale>  5 0.18304956E+03</rscale>
<asrwt>0</asrwt>
<pdfrwt beam="1">  1       21 0.17184213E+00 0.18304956E+03</pdfrwt>
<pdfrwt beam="2">  1       21 0.42926429E-01 0.18304956E+03</pdfrwt>
<totfact> 0.10924522E+03</totfact>
</mgrwt>
</event>
<event>
 7      1 +1.2618638e+02 2.19620200e+02 7.54677100e-03 1.13461400e-01
       21 -1    0    0  504  502 +0.0000000000e+00 +0.0000000000e+00 +2.4079915617e+03 2.4079915617e+03 0.0000000000e+00 0.0000e+00 1.0000e+00
       21 -1    0    0  501  503 -0.0000000000e+00 -0.0000000000e+00 -2.8944556226e+02 2.8944556226e+02 0.0000000000e+00 0.0000e+00 1.0000e+00
        6  1    1    2  501    0 -1.2738544773e+02 -1.1276642134e+02 -1.0352721531e+02 2.6379954963e+02 1.7300000000e+02 0.0000e+00 1.0000e+00
       -6  1    1    2    0  505 +3.6676363138e+01 +9.1205238493e+01 +4.3768707905e+00 1.9902690305e+02 1.7300000000e+02 0.0000e+00 -1.0000e+00
       21  1    1    2  504  506 +7.1439014257e+01 +2.1843889000e+01 +1.3648789443e+03 1.3669218050e+03 0.0000000000e+00 0.0000e+00 1.0000e+00
       21  1    1    2  505  502 +8.0700600504e+01 +2.1663570686e+01 +6.3005574159e+02 6.3557228914e+02 0.0000000000e+00 0.0000e+00 1.0000e+00
       21  1    1    2  506  503 -6.1430530173e+01 -2.1946276841e+01 +2.2276165808e+02 2.3211657721e+02 0.0000000000e+00 0.0000e+00 -1.0000e+00
<mgrwt>
<rscale>  5 0.21962018E+03</rscale>
<asrwt>0</asrwt>
<pdfrwt beam="1">  1       21 0.37046023E+00 0.21962018E+03</pdfrwt>
<pdfrwt beam="2">  1       21 0.44530088E-01 0.21962018E+03</pdfrwt>
<totfact> 0.61028330E+01</totfact>
</mgrwt>
</event>
<event>
 7      1 +1.2618638e+02 2.62364800e+02 7.54677100e-03 1.13220500e-01
       21 -1    0    0  503  502 +0.0000000000e+00 +0.0000000000e+00 +1.5251876085e+03 1.5251876085e+03 0.0000000000e+00 0.0000e+00 -1.0000e+00
       21 -1    0    0  506  503 -0.0000000000e+00 -0.0000000000e+00 -2.5465990399e+02 2.5465990399e+02 0.0000000000e+00 0.0000e+00 -1.0000e+00
        6  1    1    2  501    0 -3.1928021293e+01 -1.1185477240e+02 -1.2615458093e+02 2.4366958559e+02 1.7300000000e+02 0.0000e+00 -1.0000e+00
       -6  1    1    2    0  504 -2.9296051238e+01 -8.3193425389e+01 +1.5934148640e+02 2.5119337956e+02 1.7300000000e+02 0.0000e+00 -1.0000e+00
       21  1    1    2  504  502 +7.7851239054e+00 -4.6239961398e+01 +2.5222838798e+02 2.5654999881e+02 0.0000000000e+00 0.0000e+00 1.0000e+00
       21  1    1    2  505  501 -4.5395061305e+01 +5.1724645015e+01 +1.3103184014e+02 1.4800504594e+02 0.0000000000e+00 0.0000e+00 1.0000e+00
       21  1    1    2  506  505 +9.8834009930e+01 +1.8956351417e+02 +8.5408057096e+02 8.8042950264e+02 0.0000000000e+00 0.0000e+00 -1.0000e+00
<mgrwt>
<rscale>  5 0.24357805E+03</rscale>
<asrwt>0</asrwt>
<pdfrwt beam="1">  1       21 0.23464424E+00 0.26236479E+03</pdfrwt>
<pdfrwt beam="2">  1       21 0.39178448E-01 0.26236479E+03</pdfrwt>
<totfact> 0.47671722E+02</totfact>
</mgrwt>
</event>
<event>
 7      1 +1.2618638e+02 2.56882700e+02 7.54677100e-03 1.17369200e-01
       21 -1    0    0  504  502 +0.0000000000e+00 +0.0000000000e+00 +1.3401915212e+03 1.3401915212e+03 0.0000000000e+00 0.0000e+00 1.0000e+00
       21 -1    0    0  506  503 -0.0000000000e+00 -0.0000000000e+00 -1.6786669708e+02 1.6786669708e+02 0.0000000000e+00 0.0000e+00 1.0000e+00
        6  1    1    2  501    0 +9.5967494176e+01 -1.2919740573e+02 +6.8776046721e+02 7.2721742955e+02 1.7300000000e+02 0.0000e+00 1.0000e+00
       -6  1    1    2    0  503 +2.1602974586e+01 -1.4207901949e+02 +2.7356082304e+02 3.5414355874e+02 1.7300000000e+02 0.0000e+00 1.0000e+00
       21  1    1    2  504  505 -1.5286540140e+02 +2.3390777740e+02 +2.0617612418e+02 3.4725966287e+02 0.0000000000e+00 0.0000e+00 1.0000e+00
       21  1    1    2  505  501 -3.2027783339e+00 +3.4796430345e+01 +1.7161843569e+01 3.8930428054e+01 0.0000000000e+00 0.0000e+00 1.0000e+00
       21  1    1    2  506  502 +3.8497710973e+01 +2.5722174853e+00 -1.2334433912e+01 4.0507139036e+01 0.0000000000e+00 0.0000e+00 1.0000e+00
<mgrwt>
<rscale>  5 0.24872185E+03</rscale>
<asrwt>0</asrwt>
<pdfrwt beam="1">  1       21 0.20618330E+00 0.25688272E+03</pdfrwt>
<pdfrwt beam="2">  1       21 0.25825647E-01 0.25688272E+03</pdfrwt>
<totfact> 0.16430777E+03</totfact>
</mgrwt>
</event>
<event>
 7      1 +1.2618638e+02 2.94077200e+02 7.54677100e-03 1.17372600e-01
       21 -1    0    0  504  502 +0.0000000000e+00 +0.0000000000e+00 +4.3863174898e+02 4.3863174898e+02 0.0000000000e+00 0.0000e+00 -1.0000e+00
       21 -1    0    0  501  503 -0.0000000000e+00 -0.0000000000e+00 -6.1622803347e+02 6.1622803347e+02 0.0000000000e+00 0.0000e+00 -1.0000e+00
        6  1    1    2  501    0 -1.8289617937e+02 -1.4766625891e+02 -3.2416623032e+02 4.3619844260e+02 1.7300000000e+02 0.0000e+00 -1.0000e+00
       -6  1    1    2    0  502 +8.5796881893e+01 +2.5868241928e+02 -9.1780867798e+01 3.3560456892e+02 1.7300000000e+02 0.0000e+00 -1.0000e+00
       21  1    1    2  504  505 +3.5101644150e+01 -5.8152419755e+01 +8.8190887184e+01 1.1131694358e+02 0.0000000000e+00 0.0000e+00 -1.0000e+00
       21  1    1    2  505  506 +2.9887782333e+01 -3.4539936507e+01 +9.3899974613e+01 1.0441978730e+02 0.0000000000e+00 0.0000e+00 -1.0000e+00
       21  1    1    2  506  503 +3.2109870997e+01 -1.8323804114e+01 +5.6259951831e+01 6.7320040052e+01 0.0000000000e+00 0.0000e+00 -1.0000e+00
<mgrwt>
<rscale>  5 0.29407723E+03</rscale>
<asrwt>0</asrwt>
<pdfrwt beam="1">  1       21 0.67481807E-01 0.29407723E+03</pdfrwt>
<pdfrwt beam="2">  1       21 0.94804313E-01 0.29407723E+03</pdfrwt>
<totfact> 0.17312222E+03</totfact>
</mgrwt>
</event>
<event>
 7      1 +1.2618638e+02 1.79898800e+02 7.54677100e-03 1.12724800e-01
       21 -1    0    0  505  502 +0.0000000000e+00 +0.0000000000e+00 +2.7647874553e+03 2.7647874553e+03 0.0000000000e+00 0.0000e+00 1.0000e+00
       21 -1    0    0  502  503 -0.0000000000e+00 -0.0000000000e+00 -9.2411399834e+02 9.2411399834e+02 0.0000000000e+00 0.0000e+00 1.0000e+00
        6  1    1    2  501    0 +1.0712733321e+01 +8.5862556743e+01 +7.0776617415e+02 7.3372276684e+02 1.7300000000e+02 0.0000e+00 -1.0000e+00
       -6  1    1    2    0  503 +5.5265324024e+01 -4.6667775540e+01 +4.5562580595e+01 1.9296913241e+02 1.7300000000e+02 0.0000e+00 -1.0000e+00
       21  1    1    2  504  506 -3.6516553103e+01 +2.6539112834e+01 -8.2824333497e+01 9.4327373439e+01 0.0000000000e+00 0.0000e+00 -1.0000e+00
       21  1    1    2  505  504 -2.6912557213e+01 -2.2211099446e+01 -7.4820227639e+02 7.4901553059e+02 0.0000000000e+00 0.0000e+00 1.0000e+00
       21  1    1    2  506  501 -2.5489470280e+00 -4.3522794591e+01 +1.9183713121e+03 1.9188666504e+03 0.0000000000e+00 0.0000e+00 1.0000e+00
<mgrwt>
<rscale>  5 0.17989877E+03</rscale>
<asrwt>0</asrwt>
<pdfrwt beam="1">  1       21 0.42535191E+00 0.17989877E+03</pdfrwt>
<pdfrwt beam="2">  1       21 0.14217139E+00 0.17989877E+03</pdfrwt>
<totfact> 0.21398614E+00</totfact>
</mgrwt>
</event>
<event>
 7      1 +1.2618638e+02 1.87637000e+02 7.54677100e-03 1.07499700e-01
       21 -1    0    0  505  502 +0.0000000000e+00 +0.0000000000e+00 +4.5720454086e+02 4.5720454086e+02 0.0000000000e+00 0.0000e+00 1.0000e+00
       21 -1    0    0  501  503 -0.0000000000e+00 -0.0000000000e+00 -5.2543468139e+02 5.2543468139e+02 0.0000000000e+00 0.0000e+00 1.0000e+00
        6  1    1    2  501    0 +1.6197836171e+02 -5.7570017574e+01 -2.0971886578e+01 2.4478585869e+02 1.7300000000e+02 0.0000e+00 1.0000e+00
       -6  1    1    2    0  506 +1.2219623910e+02 +5.6914192384e+01 +1.3535350545e+02 2.5772217130e+02 1.7300000000e+02 0.0000e+00 1.0000e+00
       21  1    1    2  504  503 -1.4587078582e+01 -1.5927196807e+01 -6.3445327371e+01 6.7020653719e+01 0.0000000000e+00 0.0000e+00 1.0000e+00
       21  1    1    2  505  504 -1.1147175660e+02 -2.6405380044e+01 -1.9993633973e+02 2.3042946113e+02 0.0000000000e+00 0.0000e+00 1.0000e+00
       21  1    1    2  506  502 -1.5811576563e+02 +4.2988402041e+01 +8.0769907702e+01 1.8268107740e+02 0.0000000000e+00 0.0000e+00 1.0000e+00
<mgrwt>
<rscale>  5 0.18763701E+03</rscale>
<asrwt>0</asrwt>
<pdfrwt beam="1">  1       21 0.70339161E-01 0.18763701E+03</pdfrwt>
<pdfrwt beam="2">  1       21 0.80836104E-01 0.18763701E+03</pdfrwt>
<totfact> 0.24737426E+03</totfact>
</mgrwt>
</event>
<event>
 7      1 +1.2618638e+02 3.28183600e+02 7.54677100e-03 1.16537000e-01
       21 -1    0    0  504  502 +0.0000000000e+00 +0.0000000000e+00 +2.4766817003e+02 2.4766817003e+02 0.0000000000e+00 0.0000e+00 -1.0000e+00
       21 -1    0    0  506  503 -0.0000000000e+00 -0.0000000000e+00 -1.8304653094e+03 1.8304653094e+03 0.0000000000e+00 0.0000e+00 1.0000e+00
        6  1    1    2  501    0 +1.2891914606e+02 -2.9560972975e+02 -5.1043602008e+02 6.2807578296e+02 1.7300000000e+02 0.0000e+00 -1.0000e+00
       -6  1    1    2    0  502 +8.9278500791e+01 +2.7435450770e+02 -8.4694148864e+02 9.1130671663e+02 1.7300000000e+02 0.0000e+00 1.0000e+00
       21  1    1    2  504  503 -1.5953867641e+02 +3.3202041181e+01 +1.1024368960e+02 1.9674510390e+02 0.0000000000e+00 0.0000e+00 -1.0000e+00
       21  1    1    2  505  501 -3.0611107619e+01 -1.3238987731e+01 -2.4003167116e+02 2.4233760308e+02 0.0000000000e+00 0.0000e+00 -1.0000e+00
       21  1    1    2  506  505 -2.8047862815e+01 +1.2921686006e+00 -9.5631649069e+01 9.9668272845e+01 0.0000000000e+00 0.0000e+00 -1.0000e+00
<mgrwt>
<rscale>  5 0.32818359E+03</rscale>
<asrwt>0</asrwt>
<pdfrwt beam="1">  1       21 0.38102796E-01 0.32818359E+03</pdfrwt>
<pdfrwt beam="2">  1       21 0.28161004E+00 0.32818359E+03</pdfrwt>
<totfact> 0.24900595E+02</totfact>
</mgrwt>
</event>
<event>
 7      1 +1.2618638e+02 2.07448600e+02 7.54677100e-03 1.14101600e-01
       21 -1    0    0  501  502 +0.0000000000e+00 +0.0000000000e+00 +5.8339214341e+02 5.8339214341e+02 0.0000000000e+00 0.0000e+00 1.0000e+00
       21 -1    0    0  505  503 -0.0000000000e+00 -0.0000000000e+00 -4.1479541698e+02 4.1479541698e+02 0.0000000000e+00 0.0000e+00 -1.0000e+00
        6  1    1    2  501    0 -1.0612484335e+02 +1.3669058107e+01 +3.8284731843e+02 4.3353246102e+02 1.7300000000e+02 0.0000e+00 1.0000e+00
       -6  1    1    2    0  506 +1.4620048157e+02 -5.6925750170e+01 +6.3893160696e+01 2.4212901071e+02 1.7300000000e+02 0.0000e+00 1.0000e+00
       21  1    1    2  504  502 +5.2035458379e+00 -2.1480381304e+01 +9.1185009977e+00 2.3908800278e+01 0.0000000000e+00 0.0000e+00 -1.0000e+00
       21  1    1    2  505  504 -1.8068082532e+01 +4.2534575258e+01 -1.7424054010e+02 1.8026483715e+02 0.0000000000e+00 0.0000e+00 -1.0000e+00
       21  1    1    2  506  503 -2.7211101516e+01 +2.2202498109e+01 -1.1302171360e+02 1.1835245123e+02 0.0000000000e+00 0.0000e+00 1.0000e+00
<mgrwt>
<rscale>  5 0.20744863E+03</rscale>
<asrwt>0</asrwt>
<pdfrwt beam="1">  1       21 0.89752637E-01 0.20744863E+03</pdfrwt>
<pdfrwt beam="2">  1       21 0.63814680E-01 0.20744863E+03</pdfrwt>
<totfact> 0.23676445E+03</totfact>
</mgrwt>
</event>
<event>
 7      1 +1.2618638e+02 2.37767500e+02 7.54677100e-03 1.13220500e-01
       21 -1    0    0  504  502 +0.0000000000e+00 +0.0000000000e+00 +1.5151244561e+03 1.5151244561e+03 0.0000000000e+00 0.0000e+00 1.0000e+00
       21 -1    0    0  506  503 -0.0000000000e+00 -0.0000000000e+00 -2.4213824830e+02 2.4213824830e+02 0.0000000000e+00 0.0000e+00 1.0000e+00
        6  1    1    2  501    0 +6.0516377311e+01 +1.0964135922e+02 +7.1135699607e+01 2.2510608018e+02 1.7300000000e+02 0.0000e+00 1.0000e+00
       -6  1    1    2    0  502 +3.4648176254e+01 -2.2299878475e+02 +5.2440933930e+01 2.8915048966e+02 1.7300000000e+02 0.0000e+00 1.0000e+00
       21  1    1    2  504  503 +1.4137005031e+01 +1.6313757825e+01 +7.2617981488e+02 7.2650059680e+02 0.0000000000e+00 0.0000e+00 1.0000e+00
       21  1    1    2  505  501 +5.3341701287e+01 +6.1590212877e+01 +2.9594312695e+02 3.0695443604e+02 0.0000000000e+00 0.0000e+00 1.0000e+00
       21  1    1    2  506  505 -1.6264325988e+02 +3.5453454834e+01 +1.2728663246e+02 2.0955110176e+02 0.0000000000e+00 0.0000e+00 1.0000e+00
<mgrwt>
<rscale>  5 0.23776748E+03</rscale>
<asrwt>0</asrwt>
<pdfrwt beam="1">  1       21 0.23309606E+00 0.23776748E+03</pdfrwt>
<pdfrwt beam="2">  1       21 0.37252039E-01 0.23776748E+03</pdfrwt>
<totfact> 0.55261180E+02</totfact>
</mgrwt>
</event>
<event>
 7      1 +1.2618638e+02 2.50841600e+02 7.54677100e-03 1.16537000e-01
       21 -1    0    0  506  502 +0.0000000000e+00 +0.0000000000e+00 +4.4889703214e+02 4.4889703214e+02 0.0000000000e+00 0.0000e+00 1.0000e+00
       21 -1    0    0  504  503 -0.0000000000e+00 -0.0000000000e+00 -8.1734526891e+02 8.1734526891e+02 0.0000000000e+00 0.0000e+00 1.0000e+00
        6  1    1    2  501    0 -1.2738038362e+02 +3.1873653552e+01 -1.9481600918e+02 2.9176012297e+02 1.7300000000e+02 0.0000e+00 1.0000e+00
       -6  1    1    2    0  503 +2.3830093369e+02 +4.4347122305e+01 -1.6535879531e+02 3.4062667753e+02 1.7300000000e+02 0.0000e+00 1.0000e+00
       21  1    1    2  504  502 -2.3308116024e+01 +3.8183192881e+01 +2.7413301941e+02 2.7775913454e+02 0.0000000000e+00 0.0000e+00 1.0000e+00
       21  1    1    2  505  501 -8.7689221685e+01 -9.4230593221e+01 -3.0180562791e+02 3.2810888640e+02 0.0000000000e+00 0.0000e+00 1.0000e+00
       21  1    1    2  506  505 +7.6787638840e-02 -2.0173375518e+01 +1.9399176228e+01 2.7987479602e+01 0.0000000000e+00 0.0000e+00 -1.0000e+00
<mgrwt>
<rscale>  5 0.25084164E+03</rscale>
<asrwt>0</asrwt>
<pdfrwt beam="1">  1       21 0.69061082E-01 0.25084164E+03</pdfrwt>
<pdfrwt beam="2">  1       21 0.12574543E+00 0.25084164E+03</pdfrwt>
<totfact> 0.84993444E+02</totfact>
</mgrwt>
</event>
<event>
 7      1 +1.2618638e+02 3.32864000e+02 7.54677100e-03 1.17127400e-01
       21 -1    0    0  505  502 +0.0000000000e+00 +0.0000000000e+00 +5.5290716857e+02 5.5290716857e+02 0.0000000000e+00 0.0000e+00 -1.0000e+00
       21 -1    0    0  501  503 -0.0000000000e+00 -0.0000000000e+00 -2.4217095246e+03 2.4217095246e+03 0.0000000000e+00 0.0000e+00 1.0000e+00
        6  1    1    2  501    0 -8.3860745944e+01 -1.1700837407e+02 +3.3125134333e+02 4.0047476421e+02 1.7300000000e+02 0.0000e+00 -1.0000e+00
       -6  1    1    2    0  502 -2.0944698046e+02 +9.6086144752e+01 +5.2457915581e+01 2.9288464921e+02 1.7300000000e+02 0.0000e+00 1.0000e+00
       21  1    1    2  504  506 +1.9241620508e+02 +8.6011614430e+01 -1.5623309562e+03 1.5764834317e+03 0.0000000000e+00 0.0000e+00 1.0000e+00
       21  1    1    2  505  504 +6.9512391696e+01 +6.1695013161e-01 -3.6170591224e+02 3.6832529126e+02 0.0000000000e+00 0.0000e+00 -1.0000e+00
       21  1    1    2  506  503 +3.1379129636e+01 -6.5706335241e+01 -3.2847474653e+02 3.3644855680e+02 0.0000000000e+00 0.0000e+00 1.0000e+00
<mgrwt>
<rscale>  5 0.30196465E+03</rscale>
<asrwt>0</asrwt>
<pdfrwt beam="1">  1       21 0.85062641E-01 0.33286396E+03</pdfrwt>
<pdfrwt beam="2">  1       21 0.37257070E+00 0.33286396E+03</pdfrwt>
<totfact> 0.12414201E+01</totfact>
</mgrwt>
</event>
<event>
 7      1 +1.2618638e+02 3.65648700e+02 7.54677100e-03 1.17191400e-01
       21 -1    0    0  505  502 +0.0000000000e+00 +0.0000000000e+00 +1.9233862923e+03 1.9233862923e+03 0.0000000000e+00 0.0000e+00 -1.0000e+00
       21 -1    0    0  501  503 -0.0000000000e+00 -0.0000000000e+00 -5.6355147359e+02 5.6355147359e+02 0.0000000000e+00 0.0000e+00 -1.0000e+00
        6  1    1    2  501    0 +1.1280094899e+02 +4.6932560513e+01 -2.0398625045e+02 2.9405120251e+02 1.7300000000e+02 0.0000e+00 -1.0000e+00
       -6  1    1    2    0  502 -3.0882597065e+02 -1.0726987892e+02 +3.0676418736e+02 4.8053467483e+02 1.7300000000e+02 0.0000e+00 1.0000e+00
       21  1    1    2  504  506 +1.6915393652e+01 +6.7075376687e+01 +2.6371449420e+02 2.7263633498e+02 0.0000000000e+00 0.0000e+00 -1.0000e+00
       21  1    1    2  505  504 +1.6083258324e+02 +2.1679732284e+02 +1.1401425312e+03 1.1716625753e+03 0.0000000000e+00 0.0000e+00 -1.0000e+00
       21  1    1    2  506  503 +1.8277044768e+01 -2.2353538112e+02 -1.4680014359e+02 2.6805297823e+02 0.0000000000e+00 0.0000e+00 -1.0000e+00
<mgrwt>
<rscale>  5 0.31898868E+03</rscale>
<asrwt>0</asrwt>
<pdfrwt beam="1">  1       21 0.29590558E+00 0.36564872E+03</pdfrwt>
<pdfrwt beam="2">  1       21 0.86700227E-01 0.36564872E+03</pdfrwt>
<totfact> 0.33308045E+01</totfact>
</mgrwt>
</event>
<event>
 7      1 +1.2618638e+02 1.79120200e+02 7.54677100e-03 1.12385500e-01
       21 -1    0    0  506  502 +0.0000000000e+00 +0.0000000000e+00 +1.2710040115e+03 1.2710040115e+03 0.0000000000e+00 0.0000e+00 1.0000e+00
       21 -1    0    0  502  503 -0.0000000000e+00 -0.0000000000e+00 -1.7709181272e+02 1.7709181272e+02 0.0000000000e+00 0.0000e+00 1.0000e+00
        6  1    1    2  501    0 +5.2925583794e+01 +5.9588905235e+01 +5.5316659035e+02 5.8504207689e+02 1.7300000000e+02 0.0000e+00 1.0000e+00
       -6  1    1    2    0  504 +1.0662458544e+02 -6.1545252215e+00 +4.0474983582e+02 4.5294382653e+02 1.7300000000e+02 0.0000e+00 -1.0000e+00
       21  1    1    2  504  503 -3.0074608639e+01 -2.5329201857e+01 -5.8243396988e+01 7.0273350882e+01 0.0000000000e+00 0.0000e+00 1.0000e+00
       21  1    1    2  505  501 -5.3726902451e+01 -4.2107793422e+01 -4.9431283271e+01 8.4279879448e+01 0.0000000000e+00 0.0000e+00 1.0000e+00
       21  1    1    2  506  505 -7.5748658143e+01 +1.4002615266e+01 +2.4367045286e+02 2.5555669046e+02 0.0000000000e+00 0.0000e+00 1.0000e+00
<mgrwt>
<rscale>  5 0.17912021E+03</rscale>
<asrwt>0</asrwt>
<pdfrwt beam="1">  1       21 0.19553907E+00 0.17912021E+03</pdfrwt>
<pdfrwt beam="2">  1       21 0.27244895E-01 0.17912021E+03</pdfrwt>
<totfact> 0.18697932E+03</totfact>
</mgrwt>
</event>
</LesHouchesEvents>
