<LesHouchesEvents version="3.0">
<header>
<!--
#*********************************************************************
#                                                                    *
#                        MadGraph5_aMC@NLO                           *
#                                                                    *
#                           Going Beyond                             *
#                                                                    *
#                   http://madgraph.hep.uiuc.edu                     *
#                   http://madgraph.phys.ucl.ac.be                   *
#                   http://amcatnlo.cern.ch                          *
#                                                                    *
#                     The MadGraph5_aMC@NLO team                     *
#                                                                    *
#....................................................................*
#                                                                    *
# This file contains all the information necessary to reproduce      *
# the events generated:                                              *
#                                                                    *
# 1. software version                                                *
# 2. proc_card          : code generation info including model       *
# 3. param_card         : model primary parameters in the LH format  *
# 4. run_card           : running parameters (collider and cuts)     *
# 5. pythia_card        : present only if pythia has been run        *
# 6. pgs_card           : present only if pgs has been run           *
# 7. delphes_cards      : present only if delphes has been run       *
#                                                                    *
#                                                                    *
#*********************************************************************
-->
<MGVersion>
3.5.2
</MGVersion>
<MG5ProcCard>
<![CDATA[
#************************************************************
#*                     MadGraph5_aMC@NLO                    *
#*                                                          *
#*                *                       *                 *
#*                  *        * *        *                   *
#*                    * * * * 5 * * * *                     *
#*                  *        * *        *                   *
#*                *                       *                 *
#*                                                          *
#*                                                          *
#*         VERSION 3.5.2                 2023-11-08         *
#*                                                          *
#*    The MadGraph5_aMC@NLO Development Team - Find us at   *
#*    https://server06.fynu.ucl.ac.be/projects/madgraph     *
#*                                                          *
#************************************************************
#*                                                          *
#*               Command File for MadGraph5_aMC@NLO         *
#*                                                          *
#*     run as ./bin/mg5_aMC  filename                       *
#*                                                          *
#************************************************************
set group_subprocesses Auto
set ignore_six_quark_processes False
set low_mem_multicore_nlo_generation False
set complex_mass_scheme False
set include_lepton_initiated_processes False
set gauge unitary
set loop_optimized_output True
set loop_color_flows False
set max_npoint_for_channel 0
set default_unset_couplings 99
set max_t_for_channel 99
set zerowidth_tchannel True
set nlo_mixed_expansion True
import model sm
define p = g u c d s u~ c~ d~ s~
define j = g u c d s u~ c~ d~ s~
define l+ = e+ mu+
define l- = e- mu-
define vl = ve vm vt
define vl~ = ve~ vm~ vt~
generate p p > 3j
output
]]>
</MG5ProcCard>
<MGProcCard>
#*********************************************************************
#                        MadGraph/MadEvent                           *
#                   http://madgraph.hep.uiuc.edu                     *
#                                                                    *
#                          proc_card.dat                             *
#*********************************************************************
#                                                                    *
#            This Files is generated by MADGRAPH 5                   *
#                                                                    *
# WARNING: This Files is generated for MADEVENT (compatibility issue)*
#          This files is NOT a valid MG4 proc_card.dat               *
#          Running this in MG4 will NEVER reproduce the result of MG5*
#                                                                    *
#*********************************************************************
#*********************************************************************
# Process(es) requested : mg2 input                                  *
#*********************************************************************
# Begin PROCESS # This is TAG. Do not modify this line
p p > 3j           #Process
# Be carefull the coupling are here in MG5 convention
          
end_coup           # End the couplings input

done               # this tells MG there are no more procs
# End PROCESS  # This is TAG. Do not modify this line
#*********************************************************************
# Model information                                                  *
#*********************************************************************
# Begin MODEL  # This is TAG. Do not modify this line
sm
# End   MODEL  # This is TAG. Do not modify this line
#*********************************************************************
# Start multiparticle definitions                                    *
#*********************************************************************
# Begin MULTIPARTICLES # This is TAG. Do not modify this line

# End  MULTIPARTICLES # This is TAG. Do not modify this line
</MGProcCard>
<MGRunCard>
<![CDATA[
#*********************************************************************
#                       MadGraph5_aMC@NLO                            *
#                                                                    *
#                     run_card.dat MadEvent                          *
#                                                                    *
#  This file is used to set the parameters of the run.               *
#                                                                    *
#  Some notation/conventions:                                        *
#                                                                    *
#   Lines starting with a '# ' are info or comments                  *
#                                                                    *
#   mind the format:   value    = variable     ! comment             *
#                                                                    *
#   To display more options, you can type the command:               *
#      update to_full                                                *
#*********************************************************************
#                                                                    
#*********************************************************************
# Tag name for the run (one word)                                    *
#*********************************************************************
  tag_1     = run_tag ! name of the run 
#*********************************************************************
# Number of events and rnd seed                                      *
# Warning: Do not generate more than 1M events in a single run       *
#*********************************************************************
  100 = nevents ! Number of unweighted events requested 
 21 = iseed   ! rnd seed (0=assigned automatically=default))
#*********************************************************************
# Collider type and energy                                           *
# lpp: 0=No PDF, 1=proton, -1=antiproton,                            *
#                2=elastic photon of proton/ion beam                 *
#             +/-3=PDF of electron/positron beam                     *
#             +/-4=PDF of muon/antimuon beam                         *
#*********************************************************************
     1        = lpp1    ! beam 1 type 
     1        = lpp2    ! beam 2 type
     6500.0     = ebeam1  ! beam 1 total energy in GeV
     6500.0     = ebeam2  ! beam 2 total energy in GeV
# To see polarised beam options: type "update beam_pol"

#*********************************************************************
# PDF CHOICE: this automatically fixes alpha_s and its evol.         *
# pdlabel: lhapdf=LHAPDF (installation needed) [1412.7420]           *
#          iww=Improved Weizsaecker-Williams Approx.[hep-ph/9310350] *
#          eva=Effective W/Z/A Approx.       [2111.02442]            *
#          edff=EDFF in gamma-UPC            [eq.(11) in 2207.03012] *
#          chff=ChFF in gamma-UPC            [eq.(13) in 2207.03012] *
#          none=No PDF, same as lhapdf with lppx=0                   *
#*********************************************************************
     nn23lo1    = pdlabel     ! PDF set 
     230000    = lhaid     ! if pdlabel=lhapdf, this is the lhapdf number
# To see heavy ion options: type "update ion_pdf"
#*********************************************************************
# Renormalization and factorization scales                           *
#*********************************************************************
 False = fixed_ren_scale  ! if .true. use fixed ren scale
     False = fixed_fac_scale  ! if .true. use fixed fac scale
 91.188  = scale            ! fixed ren scale
 91.188  = dsqrt_q2fact1    ! fixed fact scale for pdf1
 91.188  = dsqrt_q2fact2    ! fixed fact scale for pdf2
 -1 = dynamical_scale_choice ! Choose one of the preselected dynamical choices
 1.0  = scalefact        ! scale factor for event-by-event scales

 
#*********************************************************************
# Type and output format
#*********************************************************************
  False     = gridpack  !True = setting up the grid pack
  -1.0 = time_of_flight ! threshold (in mm) below which the invariant livetime is not written (-1 means not written)
  average =  event_norm       ! average/sum. Normalization of the weight in the LHEF
# To see MLM/CKKW  merging options: type "update MLM" or "update CKKW"

#*********************************************************************
#
#*********************************************************************
# Phase-Space Optimization strategy (basic options)
#*********************************************************************
   0  = nhel          ! using helicities importance sampling or not.
                             ! 0: sum over helicity, 1: importance sampling
   2  = sde_strategy  ! default integration strategy (hep-ph/2021.00773)
                             ! 1 is old strategy (using amp square)
			     ! 2 is new strategy (using only the denominator)
# To see advanced option for Phase-Space optimization: type "update psoptim"			     
#*********************************************************************
# Customization (custom cuts/scale/bias/...)                         *
# list of files containing fortran function that overwrite default   *
#*********************************************************************
  = custom_fcts ! List of files containing user hook function
#*******************************                                                 
# Parton level cuts definition *
#*******************************
  0.0  = dsqrt_shat ! minimal shat for full process
#                                                                    
#
#*********************************************************************
# BW cutoff (M+/-bwcutoff*Gamma) ! Define on/off-shell for "$" and decay  
#*********************************************************************
  15.0  = bwcutoff      ! (M+/-bwcutoff*Gamma)
#*********************************************************************
# Standard Cuts                                                      *
#*********************************************************************
# Minimum and maximum pt's (for max, -1 means no cut)                *
#*********************************************************************
 20.0  = ptj       ! minimum pt for the jets 
 -1.0  = ptjmax    ! maximum pt for the jets
 {} = pt_min_pdg ! pt cut for other particles (use pdg code). Applied on particle and anti-particle
 {}	= pt_max_pdg ! pt cut for other particles (syntax e.g. {6: 100, 25: 50}) 
#
# For display option for energy cut in the partonic center of mass frame type 'update ecut'
#
#*********************************************************************
# Maximum and minimum absolute rapidity (for max, -1 means no cut)   *
#*********************************************************************
 5.0 = etaj    ! max rap for the jets 
 {} = eta_min_pdg ! rap cut for other particles (use pdg code). Applied on particle and anti-particle
 {} = eta_max_pdg ! rap cut for other particles (syntax e.g. {6: 2.5, 23: 5})
#*********************************************************************
# Minimum and maximum DeltaR distance                                *
#*********************************************************************
 0.4 = drjj    ! min distance between jets 
 -1.0  = drjjmax ! max distance between jets
#*********************************************************************
# Minimum and maximum invariant mass for pairs                       *
#*********************************************************************
 0.0   = mmjj    ! min invariant mass of a jet pair 
 -1.0  = mmjjmax ! max invariant mass of a jet pair
 {} = mxx_min_pdg ! min invariant mass of a pair of particles X/X~ (e.g. {6:250})
 {'default': False} = mxx_only_part_antipart ! if True the invariant mass is applied only 
                       ! to pairs of particle/antiparticle and not to pairs of the same pdg codes.  
#*********************************************************************
# Inclusive cuts                                                     *
#*********************************************************************
 0.0  = xptj ! minimum pt for at least one jet  
 #*********************************************************************
 # Control the pt's of the jets sorted by pt                          *
 #*********************************************************************
 0.0   = ptj1min ! minimum pt for the leading jet in pt
 0.0   = ptj2min ! minimum pt for the second jet in pt
 0.0   = ptj3min ! minimum pt for the third jet in pt
 -1.0  = ptj1max ! maximum pt for the leading jet in pt 
 -1.0  = ptj2max ! maximum pt for the second jet in pt
 -1.0  = ptj3max ! maximum pt for the third jet in pt
 0   = cutuse  ! reject event if fails any (0) / all (1) jet pt cuts
 #*********************************************************************
 # Control the Ht(k)=Sum of k leading jets                            *
 #*********************************************************************
 0.0   = htjmin ! minimum jet HT=Sum(jet pt)
 -1.0  = htjmax ! maximum jet HT=Sum(jet pt)
 0.0   = ihtmin  !inclusive Ht for all partons (including b)
 -1.0  = ihtmax  !inclusive Ht for all partons (including b)
 0.0   = ht2min ! minimum Ht for the two leading jets
 0.0   = ht3min ! minimum Ht for the three leading jets
 -1.0  = ht2max ! maximum Ht for the two leading jets
 -1.0  = ht3max ! maximum Ht for the three leading jets
 #*********************************************************************
 # WBF cuts                                                           *
 #*********************************************************************
 0.0   = xetamin ! minimum rapidity for two jets in the WBF case  
 0.0   = deltaeta ! minimum rapidity for two jets in the WBF case 
#*********************************************************************
# maximal pdg code for quark to be considered as a light jet         *
# (otherwise b cuts are applied)                                     *
#*********************************************************************
 4 = maxjetflavor    ! Maximum jet pdg code
#*********************************************************************
#
#*********************************************************************
# Store info for systematics studies                                 *
# WARNING: Do not use for interference type of computation           *
#*********************************************************************
   True  = use_syst      ! Enable systematics studies
#
systematics = systematics_program ! none, systematics [python], SysCalc [depreceted, C++]
['--mur=0.5,1,2', '--muf=0.5,1,2', '--pdf=errorset'] = systematics_arguments ! see: https://cp3.irmp.ucl.ac.be/projects/madgraph/wiki/Systematics#Systematicspythonmodule
]]>
</MGRunCard>
<slha>
######################################################################
## PARAM_CARD AUTOMATICALY GENERATED BY MG5                       ####
######################################################################
###################################
## INFORMATION FOR MASS
###################################
BLOCK MASS # 
      5 4.700000e+00 # mb
      6 1.730000e+02 # mt
      15 1.777000e+00 # mta
      23 9.118800e+01 # mz
      25 1.250000e+02 # mh
      1 0.000000e+00 # d : 0.0
      2 0.000000e+00 # u : 0.0
      3 0.000000e+00 # s : 0.0
      4 0.000000e+00 # c : 0.0
      11 0.000000e+00 # e- : 0.0
      12 0.000000e+00 # ve : 0.0
      13 0.000000e+00 # mu- : 0.0
      14 0.000000e+00 # vm : 0.0
      16 0.000000e+00 # vt : 0.0
      21 0.000000e+00 # g : 0.0
      22 0.000000e+00 # a : 0.0
      24 8.041900e+01 # w+ : cmath.sqrt(mz__exp__2/2. + cmath.sqrt(mz__exp__4/4. - (aew*cmath.pi*mz__exp__2)/(gf*sqrt__2)))
###################################
## INFORMATION FOR SMINPUTS
###################################
BLOCK SMINPUTS # 
      1 1.325070e+02 # aewm1
      2 1.166390e-05 # gf
      3 1.300000e-01 # as (note that parameter not used if you use a pdf set)
###################################
## INFORMATION FOR YUKAWA
###################################
BLOCK YUKAWA # 
      5 4.700000e+00 # ymb
      6 1.730000e+02 # ymt
      15 1.777000e+00 # ymtau
###################################
## INFORMATION FOR DECAY
###################################
DECAY 6 1.491500e+00 # wt
DECAY 23 2.441404e+00 # wz
DECAY 24 2.047600e+00 # ww
DECAY 25 6.382339e-03 # wh
DECAY 1 0.000000e+00 # d : 0.0
DECAY 2 0.000000e+00 # u : 0.0
DECAY 3 0.000000e+00 # s : 0.0
DECAY 4 0.000000e+00 # c : 0.0
DECAY 5 0.000000e+00 # b : 0.0
DECAY 11 0.000000e+00 # e- : 0.0
DECAY 12 0.000000e+00 # ve : 0.0
DECAY 13 0.000000e+00 # mu- : 0.0
DECAY 14 0.000000e+00 # vm : 0.0
DECAY 15 0.000000e+00 # ta- : 0.0
DECAY 16 0.000000e+00 # vt : 0.0
DECAY 21 0.000000e+00 # g : 0.0
DECAY 22 0.000000e+00 # a : 0.0
</slha>
<MGGenerationInfo>
#  Number of Events        :       100
#  Integrated weight (pb)  :       66372287.22200001
</MGGenerationInfo>
</header>
<init>
2212 2212 6.500000e+03 6.500000e+03 0 0 247000 247000 -4 1
6.637229e+07 1.268397e+06 6.637229e+07 1
<generator name='MadGraph5_aMC@NLO' version='3.5.2'>please cite 1405.0301 </generator>
</init>
<event>
 5      1 +6.6372287e+07 4.60140800e+01 7.54677100e-03 1.46810800e-01
       21 -1    0    0  503  501 +0.0000000000e+00 +0.0000000000e+00 +1.8788806474e+02 1.8788806474e+02 0.0000000000e+00 0.0000e+00 -1.0000e+00
       21 -1    0    0  504  502 -0.0000000000e+00 -0.0000000000e+00 -3.0556910363e+01 3.0556910363e+01 0.0000000000e+00 0.0000e+00 -1.0000e+00
       21  1    1    2  503  502 -1.0298827890e+01 -4.1053633424e+01 +8.3051244550e+01 9.3214676391e+01 0.0000000000e+00 0.0000e+00 -1.0000e+00
       21  1    1    2  504  505 +1.7276524932e+01 -1.2156784273e+01 -1.1495329061e+01 2.4050120744e+01 0.0000000000e+00 0.0000e+00 -1.0000e+00
       21  1    1    2  505  501 -6.9776970424e+00 +5.3210417698e+01 +8.5775238884e+01 1.0118017797e+02 0.0000000000e+00 0.0000e+00 -1.0000e+00
<mgrwt>
<rscale>  3 0.46014081E+02</rscale>
<asrwt>0</asrwt>
<pdfrwt beam="1">  1       21 0.28905856E-01 0.46014081E+02</pdfrwt>
<pdfrwt beam="2">  1       21 0.47010632E-02 0.46014081E+02</pdfrwt>
<totfact> 0.31830845E+06</totfact>
</mgrwt>
</event>
<event>
 5      1 +6.6372287e+07 3.25558900e+01 7.54677100e-03 1.57144200e-01
       21 -1    0    0  505  501 +0.0000000000e+00 +0.0000000000e+00 +2.7974513959e+02 2.7974513959e+02 0.0000000000e+00 0.0000e+00 -1.0000e+00
       21 -1    0    0  501  502 -0.0000000000e+00 -0.0000000000e+00 -5.0115268359e+01 5.0115268359e+01 0.0000000000e+00 0.0000e+00 1.0000e+00
       21  1    1    2  503  504 +1.1282244936e+00 +2.2858622638e+01 +3.8461797268e-02 2.2886480698e+01 0.0000000000e+00 0.0000e+00 1.0000e+00
       21  1    1    2  504  502 +2.9194898468e+00 -4.2605139346e+01 -2.6389333299e+01 5.0200779193e+01 0.0000000000e+00 0.0000e+00 1.0000e+00
       21  1    1    2  505  503 -4.0477143403e+00 +1.9746516708e+01 +2.5598074273e+02 2.5677314806e+02 0.0000000000e+00 0.0000e+00 -1.0000e+00
<mgrwt>
<rscale>  3 0.32555892E+02</rscale>
<asrwt>0</asrwt>
<pdfrwt beam="1">  1       21 0.43037713E-01 0.32555892E+02</pdfrwt>
<pdfrwt beam="2">  1       21 0.77100414E-02 0.32555892E+02</pdfrwt>
<totfact> 0.65037882E+05</totfact>
</mgrwt>
</event>
<event>
 5      1 +6.6372287e+07 3.05908400e+01 7.54677100e-03 1.59164800e-01
        2 -1    0    0  503    0 -0.0000000000e+00 +0.0000000000e+00 +4.5729905700e+02 4.5729905700e+02 0.0000000000e+00 0.0000e+00 1.0000e+00
       21 -1    0    0  501  502 +0.0000000000e+00 -0.0000000000e+00 -6.3253912877e+02 6.3253912877e+02 0.0000000000e+00 0.0000e+00 -1.0000e+00
       21  1    1    2  503  504 +1.1420284484e+00 +2.8694844708e+01 +1.2159916921e+02 1.2494421273e+02 0.0000000000e+00 0.0000e+00 1.0000e+00
       21  1    1    2  504  502 -2.2459074491e+01 -2.0815319355e+01 -6.3010778840e+02 6.3085141876e+02 0.0000000000e+00 0.0000e+00 -1.0000e+00
        2  1    1    2  501    0 +2.1317046043e+01 -7.8795253530e+00 +3.3326854742e+02 3.3404255428e+02 0.0000000000e+00 0.0000e+00 1.0000e+00
<mgrwt>
<rscale>  3 0.30590836E+02</rscale>
<asrwt>0</asrwt>
<pdfrwt beam="2">  1       21 0.97313711E-01 0.30590836E+02</pdfrwt>
<pdfrwt beam="1">  1        2 0.70353702E-01 0.30590836E+02</pdfrwt>
<totfact> 0.91658669E+02</totfact>
</mgrwt>
</event>
<event>
 5      1 +6.6372287e+07 1.24970000e+02 7.54677100e-03 1.23511600e-01
       21 -1    0    0  502  501 +0.0000000000e+00 +0.0000000000e+00 +6.4054339688e+02 6.4054339688e+02 0.0000000000e+00 0.0000e+00 1.0000e+00
       21 -1    0    0  504  502 -0.0000000000e+00 -0.0000000000e+00 -3.3928351011e+01 3.3928351011e+01 0.0000000000e+00 0.0000e+00 -1.0000e+00
       21  1    1    2  503  505 -3.6546574781e+01 +7.3293152180e+00 +5.3085336864e+01 6.4864658942e+01 0.0000000000e+00 0.0000e+00 -1.0000e+00
       21  1    1    2  504  503 -8.4789922053e+01 +1.0871076160e+01 +6.9212770934e+01 1.0999053977e+02 0.0000000000e+00 0.0000e+00 -1.0000e+00
       21  1    1    2  505  501 +1.2133649683e+02 -1.8200391378e+01 +4.8431693807e+02 4.9961654918e+02 0.0000000000e+00 0.0000e+00 1.0000e+00
<mgrwt>
<rscale>  3 0.12497005E+03</rscale>
<asrwt>0</asrwt>
<pdfrwt beam="1">  1       21 0.98545129E-01 0.12497005E+03</pdfrwt>
<pdfrwt beam="2">  1       21 0.52197468E-02 0.12497005E+03</pdfrwt>
<totfact> 0.21698561E+05</totfact>
</mgrwt>
</event>
<event>
 5      1 +6.6372287e+07 2.09917500e+01 7.54677100e-03 1.72629600e-01
       21 -1    0    0  504  501 +0.0000000000e+00 +0.0000000000e+00 +2.9393491974e+01 2.9393491974e+01 0.0000000000e+00 0.0000e+00 -1.0000e+00
       21 -1    0    0  501  502 -0.0000000000e+00 -0.0000000000e+00 -5.0612634540e+01 5.0612634540e+01 0.0000000000e+00 0.0000e+00 -1.0000e+00
       21  1    1    2  503  502 -2.2361493101e+01 -8.0134576492e+00 -2.5339678876e+01 3.4732566890e+01 0.0000000000e+00 0.0000e+00 -1.0000e+00
       21  1    1    2  504  505 +5.3440837509e+00 +2.0304167068e+01 +1.0307030697e+01 2.3389170854e+01 0.0000000000e+00 0.0000e+00 -1.0000e+00
       21  1    1    2  505  503 +1.7017409350e+01 -1.2290709419e+01 -6.1864943863e+00 2.1884388769e+01 0.0000000000e+00 0.0000e+00 -1.0000e+00
<mgrwt>
<rscale>  3 0.20991755E+02</rscale>
<asrwt>0</asrwt>
<pdfrwt beam="1">  1       21 0.45220758E-02 0.20991755E+02</pdfrwt>
<pdfrwt beam="2">  1       21 0.77865590E-02 0.20991755E+02</pdfrwt>
<totfact> 0.28846636E+07</totfact>
</mgrwt>
</event>
<event>
 5      1 +6.6372287e+07 2.01883800e+01 7.54677100e-03 1.74160800e-01
       21 -1    0    0  505  501 +0.0000000000e+00 +0.0000000000e+00 +2.9616331394e+01 2.9616331394e+01 0.0000000000e+00 0.0000e+00 1.0000e+00
       21 -1    0    0  504  502 -0.0000000000e+00 -0.0000000000e+00 -2.1809592212e+02 2.1809592212e+02 0.0000000000e+00 0.0000e+00 -1.0000e+00
       21  1    1    2  503  501 +1.4332017667e+01 -1.5898231494e+01 -1.1283261663e+02 1.1484493837e+02 0.0000000000e+00 0.0000e+00 -1.0000e+00
       21  1    1    2  504  503 +5.5127621513e+00 +1.9607065270e+01 -9.9531289229e+01 1.0159382408e+02 0.0000000000e+00 0.0000e+00 -1.0000e+00
       21  1    1    2  505  502 -1.9844779818e+01 -3.7088337755e+00 +2.3884315130e+01 3.1273491063e+01 0.0000000000e+00 0.0000e+00 1.0000e+00
<mgrwt>
<rscale>  3 0.20188381E+02</rscale>
<asrwt>0</asrwt>
<pdfrwt beam="1">  1       21 0.45563588E-02 0.20188381E+02</pdfrwt>
<pdfrwt beam="2">  1       21 0.33553218E-01 0.20188381E+02</pdfrwt>
<totfact> 0.23199633E+06</totfact>
</mgrwt>
</event>
<event>
 5      1 +6.6372287e+07 2.83114100e+01 7.54677100e-03 1.61754100e-01
       -3 -1    0    0    0  501 -0.0000000000e+00 +0.0000000000e+00 +2.8261154183e+01 2.8261154183e+01 0.0000000000e+00 0.0000e+00 1.0000e+00
       21 -1    0    0  503  502 +0.0000000000e+00 -0.0000000000e+00 -6.5070264344e+01 6.5070264344e+01 0.0000000000e+00 0.0000e+00 1.0000e+00
       21  1    1    2  503  501 +7.3144338996e+00 +3.7539358060e+01 -8.3663539266e+00 3.9149715515e+01 0.0000000000e+00 0.0000e+00 1.0000e+00
       21  1    1    2  504  502 -1.5538451858e+01 -1.6013356486e+01 -1.8894895213e+01 2.9238470159e+01 0.0000000000e+00 0.0000e+00 1.0000e+00
       -3  1    1    2    0  504 +8.2240179584e+00 -2.1526001574e+01 -9.5478610208e+00 2.4943232854e+01 0.0000000000e+00 0.0000e+00 1.0000e+00
<mgrwt>
<rscale>  3 0.28311412E+02</rscale>
<asrwt>0</asrwt>
<pdfrwt beam="2">  1       21 0.10010810E-01 0.28311412E+02</pdfrwt>
<pdfrwt beam="1">  1       -3 0.43478699E-02 0.28311412E+02</pdfrwt>
<totfact> 0.75606750E+05</totfact>
</mgrwt>
</event>
<event>
 5      1 +6.6372287e+07 2.50484100e+01 7.54677100e-03 1.66030800e-01
       21 -1    0    0  504  501 +0.0000000000e+00 +0.0000000000e+00 +4.5278855952e+02 4.5278855952e+02 0.0000000000e+00 0.0000e+00 1.0000e+00
       21 -1    0    0  503  502 -0.0000000000e+00 -0.0000000000e+00 -3.3454632319e+00 3.3454632319e+00 0.0000000000e+00 0.0000e+00 -1.0000e+00
       21  1    1    2  503  505 -1.5102249073e+01 -2.7392413109e+01 +1.7894067235e+02 1.8165402953e+02 0.0000000000e+00 0.0000e+00 -1.0000e+00
       21  1    1    2  504  502 +2.1057931191e+01 +3.9670307239e+00 +9.9776507011e+01 1.0205158083e+02 0.0000000000e+00 0.0000e+00 -1.0000e+00
       21  1    1    2  505  501 -5.9556821180e+00 +2.3425382385e+01 +1.7072591693e+02 1.7242841240e+02 0.0000000000e+00 0.0000e+00 1.0000e+00
<mgrwt>
<rscale>  3 0.25048406E+02</rscale>
<asrwt>0</asrwt>
<pdfrwt beam="1">  1       21 0.69659730E-01 0.25048406E+02</pdfrwt>
<pdfrwt beam="2">  1       21 0.51468701E-03 0.25048406E+02</pdfrwt>
<totfact> 0.16161844E+07</totfact>
</mgrwt>
</event>
<event>
 5      1 +6.6372287e+07 6.54738600e+01 7.54677100e-03 1.37619800e-01
       21 -1    0    0  501  502 +0.0000000000e+00 +0.0000000000e+00 +2.6663794394e+01 2.6663794394e+01 0.0000000000e+00 0.0000e+00 1.0000e+00
        1 -1    0    0  503    0 -0.0000000000e+00 -0.0000000000e+00 -2.5265738923e+02 2.5265738923e+02 0.0000000000e+00 0.0000e+00 1.0000e+00
       21  1    1    2  503  504 -7.6137868107e+00 +4.2439462980e+01 -1.6255497692e+02 1.6817609310e+02 0.0000000000e+00 0.0000e+00 1.0000e+00
       21  1    1    2  504  502 -1.7587948234e+01 +1.0621679064e+01 -4.5177420050e+01 4.9630185085e+01 0.0000000000e+00 0.0000e+00 1.0000e+00
        1  1    1    2  501    0 +2.5201735045e+01 -5.3061142044e+01 -1.8261197867e+01 6.1514905444e+01 0.0000000000e+00 0.0000e+00 1.0000e+00
<mgrwt>
<rscale>  3 0.65473858E+02</rscale>
<asrwt>0</asrwt>
<pdfrwt beam="1">  1       21 0.41021221E-02 0.65473858E+02</pdfrwt>
<pdfrwt beam="2">  1        1 0.38870368E-01 0.65473858E+02</pdfrwt>
<totfact> 0.41073273E+05</totfact>
</mgrwt>
</event>
<event>
 5      1 +6.6372287e+07 4.71053000e+01 7.54677100e-03 1.46161100e-01
       21 -1    0    0  503  501 +0.0000000000e+00 +0.0000000000e+00 +1.0723487937e+02 1.0723487937e+02 0.0000000000e+00 0.0000e+00 1.0000e+00
       21 -1    0    0  505  502 -0.0000000000e+00 -0.0000000000e+00 -1.2434583342e+02 1.2434583342e+02 0.0000000000e+00 0.0000e+00 -1.0000e+00
       21  1    1    2  503  504 -1.5074548460e+01 +4.4668996332e+01 +7.0907382043e+01 8.5149386802e+01 0.0000000000e+00 0.0000e+00 -1.0000e+00
       21  1    1    2  504  502 -3.7446327852e+01 -2.8577640944e+01 -7.7213750461e+01 9.0448174619e+01 0.0000000000e+00 0.0000e+00 -1.0000e+00
       21  1    1    2  505  501 +5.2520876312e+01 -1.6091355388e+01 -1.0804585631e+01 5.5983151371e+01 0.0000000000e+00 0.0000e+00 1.0000e+00
<mgrwt>
<rscale>  3 0.47105297E+02</rscale>
<asrwt>0</asrwt>
<pdfrwt beam="1">  1       21 0.16497674E-01 0.47105297E+02</pdfrwt>
<pdfrwt beam="2">  1       21 0.19130128E-01 0.47105297E+02</pdfrwt>
<totfact> 0.81247298E+05</totfact>
</mgrwt>
</event>
<event>
 5      1 +6.6372287e+07 4.77488600e+01 7.54677100e-03 1.45787600e-01
       21 -1    0    0  505  501 +0.0000000000e+00 +0.0000000000e+00 +1.3351097238e+02 1.3351097238e+02 0.0000000000e+00 0.0000e+00 -1.0000e+00
       21 -1    0    0  503  502 -0.0000000000e+00 -0.0000000000e+00 -2.1959914093e+03 2.1959914093e+03 0.0000000000e+00 0.0000e+00 1.0000e+00
       21  1    1    2  503  501 -2.6534412892e+01 +2.0887502154e+01 -2.0204850067e+03 2.0207671872e+03 0.0000000000e+00 0.0000e+00 1.0000e+00
       21  1    1    2  504  502 +2.7723341226e+01 -6.8071401227e+01 -1.6302498162e+02 1.7882797305e+02 0.0000000000e+00 0.0000e+00 -1.0000e+00
       21  1    1    2  505  504 -1.1889283334e+00 +4.7183899072e+01 +1.2102955134e+02 1.2990722143e+02 0.0000000000e+00 0.0000e+00 -1.0000e+00
<mgrwt>
<rscale>  3 0.47748865E+02</rscale>
<asrwt>0</asrwt>
<pdfrwt beam="1">  1       21 0.20540149E-01 0.47748865E+02</pdfrwt>
<pdfrwt beam="2">  1       21 0.33784484E+00 0.47748865E+02</pdfrwt>
<totfact> 0.69049208E+02</totfact>
</mgrwt>
</event>
<event>
 5      1 +6.6372287e+07 5.17648700e+01 7.54677100e-03 1.43604800e-01
       -2 -1    0    0    0  501 -0.0000000000e+00 +0.0000000000e+00 +7.0572435077e+02 7.0572435077e+02 0.0000000000e+00 0.0000e+00 1.0000e+00
       21 -1    0    0  503  502 +0.0000000000e+00 -0.0000000000e+00 -8.6069634546e+00 8.6069634546e+00 0.0000000000e+00 0.0000e+00 1.0000e+00
       21  1    1    2  503  504 +2.3775888591e+01 -5.0832360721e+00 +1.9988986553e+01 3.1475256166e+01 0.0000000000e+00 0.0000e+00 1.0000e+00
       21  1    1    2  504  501 +2.1064391322e+01 -6.4983212153e+00 +5.8809348241e+01 6.2805065090e+01 0.0000000000e+00 0.0000e+00 1.0000e+00
       -2  1    1    2    0  502 -4.4840279913e+01 +1.1581557287e+01 +6.1831905252e+02 6.2005099297e+02 0.0000000000e+00 0.0000e+00 1.0000e+00
<mgrwt>
<rscale>  3 0.51764867E+02</rscale>
<asrwt>0</asrwt>
<pdfrwt beam="2">  1       21 0.13241488E-02 0.51764867E+02</pdfrwt>
<pdfrwt beam="1">  1       -2 0.10857293E+00 0.51764867E+02</pdfrwt>
<totfact> 0.12387408E+05</totfact>
</mgrwt>
</event>
<event>
 5      1 +6.6372287e+07 2.68215700e+01 7.54677100e-03 1.63613700e-01
       21 -1    0    0  504  501 +0.0000000000e+00 +0.0000000000e+00 +4.7995183998e+01 4.7995183998e+01 0.0000000000e+00 0.0000e+00 1.0000e+00
       21 -1    0    0  505  502 -0.0000000000e+00 -0.0000000000e+00 -4.6755507222e+02 4.6755507222e+02 0.0000000000e+00 0.0000e+00 -1.0000e+00
       21  1    1    2  503  501 -5.6572765501e+00 -2.1816941248e+01 +1.1968309353e+01 2.5519093482e+01 0.0000000000e+00 0.0000e+00 1.0000e+00
       21  1    1    2  504  502 -2.3663698968e+01 +1.2778475361e+01 -4.5222293332e+02 4.5302189959e+02 0.0000000000e+00 0.0000e+00 -1.0000e+00
       21  1    1    2  505  503 +2.9320975518e+01 +9.0384658865e+00 +2.0694735751e+01 3.7009263148e+01 0.0000000000e+00 0.0000e+00 1.0000e+00
<mgrwt>
<rscale>  3 0.26821571E+02</rscale>
<asrwt>0</asrwt>
<pdfrwt beam="1">  1       21 0.73838749E-02 0.26821571E+02</pdfrwt>
<pdfrwt beam="2">  1       21 0.71931546E-01 0.26821571E+02</pdfrwt>
<totfact> 0.24837378E+05</totfact>
</mgrwt>
</event>
<event>
 5      1 +6.6372287e+07 4.31543000e+01 7.54677100e-03 1.48620400e-01
       21 -1    0    0  502  501 +0.0000000000e+00 +0.0000000000e+00 +7.1563261884e+02 7.1563261884e+02 0.0000000000e+00 0.0000e+00 1.0000e+00
       21 -1    0    0  504  502 -0.0000000000e+00 -0.0000000000e+00 -1.4644760996e+01 1.4644760996e+01 0.0000000000e+00 0.0000e+00 -1.0000e+00
       21  1    1    2  503  501 +1.2645094462e+01 -4.3267730831e+01 +6.6587442685e+02 6.6739849211e+02 0.0000000000e+00 0.0000e+00 1.0000e+00
       21  1    1    2  504  505 -1.7724111495e+01 +1.5186816241e+01 +1.2556432303e+01 2.6503726304e+01 0.0000000000e+00 0.0000e+00 -1.0000e+00
       21  1    1    2  505  503 +5.0790170329e+00 +2.8080914591e+01 +2.2556998696e+01 3.6375161422e+01 0.0000000000e+00 0.0000e+00 -1.0000e+00
<mgrwt>
<rscale>  3 0.43154296E+02</rscale>
<asrwt>0</asrwt>
<pdfrwt beam="1">  1       21 0.11009730E+00 0.43154296E+02</pdfrwt>
<pdfrwt beam="2">  1       21 0.22530407E-02 0.43154296E+02</pdfrwt>
<totfact> 0.66560154E+05</totfact>
</mgrwt>
</event>
<event>
 5      1 +6.6372287e+07 4.37774800e+01 7.54677100e-03 1.48212100e-01
       21 -1    0    0  505  501 +0.0000000000e+00 +0.0000000000e+00 +2.6494856549e+02 2.6494856549e+02 0.0000000000e+00 0.0000e+00 -1.0000e+00
       21 -1    0    0  503  502 -0.0000000000e+00 -0.0000000000e+00 -4.4840936233e+01 4.4840936233e+01 0.0000000000e+00 0.0000e+00 1.0000e+00
       21  1    1    2  503  504 -2.3919572741e+01 -2.1836315356e+01 -2.8033165864e+01 4.2834904188e+01 0.0000000000e+00 0.0000e+00 1.0000e+00
       21  1    1    2  504  501 +2.0968394452e+01 -2.8904789122e+01 +4.4445065176e+01 5.7013368771e+01 0.0000000000e+00 0.0000e+00 -1.0000e+00
       21  1    1    2  505  502 +2.9511782884e+00 +5.0741104479e+01 +2.0369572994e+02 2.0994122876e+02 0.0000000000e+00 0.0000e+00 -1.0000e+00
<mgrwt>
<rscale>  3 0.43777479E+02</rscale>
<asrwt>0</asrwt>
<pdfrwt beam="1">  1       21 0.40761317E-01 0.43777479E+02</pdfrwt>
<pdfrwt beam="2">  1       21 0.68986058E-02 0.43777479E+02</pdfrwt>
<totfact> 0.88070658E+05</totfact>
</mgrwt>
</event>
<event>
 5      1 +6.6372287e+07 3.19042100e+01 7.54677100e-03 1.57794600e-01
       21 -1    0    0  505  501 +0.0000000000e+00 +0.0000000000e+00 +3.5412150098e+01 3.5412150098e+01 0.0000000000e+00 0.0000e+00 -1.0000e+00
       21 -1    0    0  504  502 -0.0000000000e+00 -0.0000000000e+00 -7.5668427371e+02 7.5668427371e+02 0.0000000000e+00 0.0000e+00 -1.0000e+00
       21  1    1    2  503  502 +4.2078004819e+00 -3.1373137318e+01 -7.1649764593e+02 7.1719652534e+02 0.0000000000e+00 0.0000e+00 -1.0000e+00
       21  1    1    2  504  501 +1.7730843460e+01 -1.5141321578e+01 -1.1865670592e+00 2.3346313849e+01 0.0000000000e+00 0.0000e+00 1.0000e+00
       21  1    1    2  505  503 -2.1938643942e+01 +4.6514458896e+01 -3.5879106177e+00 5.1553584618e+01 0.0000000000e+00 0.0000e+00 -1.0000e+00
<mgrwt>
<rscale>  3 0.31904206E+02</rscale>
<asrwt>0</asrwt>
<pdfrwt beam="1">  1       21 0.54480234E-02 0.31904206E+02</pdfrwt>
<pdfrwt beam="2">  1       21 0.11641296E+00 0.31904206E+02</pdfrwt>
<totfact> 0.14302972E+05</totfact>
</mgrwt>
</event>
<event>
 5      1 +6.6372287e+07 2.62752100e+01 7.54677100e-03 1.64333300e-01
       21 -1    0    0  501  502 +0.0000000000e+00 +0.0000000000e+00 +7.3680834147e+01 7.3680834147e+01 0.0000000000e+00 0.0000e+00 1.0000e+00
        2 -1    0    0  503    0 -0.0000000000e+00 -0.0000000000e+00 -4.3076387169e+02 4.3076387169e+02 0.0000000000e+00 0.0000e+00 1.0000e+00
       21  1    1    2  503  504 +5.3624128570e+00 +1.9370699338e+01 -1.8582414279e+02 1.8690797605e+02 0.0000000000e+00 0.0000e+00 1.0000e+00
       21  1    1    2  504  502 +1.5600742238e+01 -2.1293512835e+01 +7.0284358620e+01 7.5077878991e+01 0.0000000000e+00 0.0000e+00 1.0000e+00
        2  1    1    2  501    0 -2.0963155095e+01 +1.9228134974e+00 -2.4154325337e+02 2.4245885080e+02 0.0000000000e+00 0.0000e+00 1.0000e+00
<mgrwt>
<rscale>  3 0.26275207E+02</rscale>
<asrwt>0</asrwt>
<pdfrwt beam="1">  1       21 0.11335513E-01 0.26275207E+02</pdfrwt>
<pdfrwt beam="2">  1        2 0.66271366E-01 0.26275207E+02</pdfrwt>
<totfact> 0.56080712E+04</totfact>
</mgrwt>
</event>
<event>
 5      1 +6.6372287e+07 4.55308900e+01 7.54677100e-03 1.47105400e-01
        2 -1    0    0  503    0 -0.0000000000e+00 +0.0000000000e+00 +2.1459625930e+03 2.1459625930e+03 0.0000000000e+00 0.0000e+00 -1.0000e+00
       21 -1    0    0  504  502 +0.0000000000e+00 -0.0000000000e+00 -5.5418446222e+00 5.5418446222e+00 0.0000000000e+00 0.0000e+00 1.0000e+00
       21  1    1    2  503  502 +3.4560110742e+01 -1.7822362191e+01 +1.6729667012e+02 1.7175626242e+02 0.0000000000e+00 0.0000e+00 1.0000e+00
       21  1    1    2  504  501 +8.6373215770e+00 +3.7927160061e+01 +1.2285930833e+02 1.2887002149e+02 0.0000000000e+00 0.0000e+00 1.0000e+00
        2  1    1    2  501    0 -4.3197432319e+01 -2.0104797870e+01 +1.8502647699e+03 1.8508781537e+03 0.0000000000e+00 0.0000e+00 -1.0000e+00
<mgrwt>
<rscale>  3 0.45530891E+02</rscale>
<asrwt>0</asrwt>
<pdfrwt beam="2">  1       21 0.85259319E-03 0.45530891E+02</pdfrwt>
<pdfrwt beam="1">  1        2 0.33014743E+00 0.45530891E+02</pdfrwt>
<totfact> 0.37889394E+05</totfact>
</mgrwt>
</event>
<event>
 5      1 +6.6372287e+07 3.49649300e+01 7.54677100e-03 1.54891200e-01
       -2 -1    0    0    0  501 -0.0000000000e+00 +0.0000000000e+00 +8.0100600886e+00 8.0100600886e+00 0.0000000000e+00 0.0000e+00 -1.0000e+00
        2 -1    0    0  503    0 +0.0000000000e+00 -0.0000000000e+00 -1.6748462249e+03 1.6748462249e+03 0.0000000000e+00 0.0000e+00 -1.0000e+00
       21  1    1    2  503  501 -2.8388621465e+01 +1.5105638110e+01 -1.9595061691e+02 1.9857174623e+02 0.0000000000e+00 0.0000e+00 -1.0000e+00
        2  1    1    2  502    0 +5.9035355306e+00 -3.7141587409e+01 -1.4389449039e+03 1.4394362736e+03 0.0000000000e+00 0.0000e+00 -1.0000e+00
       -2  1    1    2    0  502 +2.2485085934e+01 +2.2035949299e+01 -3.1940644021e+01 4.4848265200e+01 0.0000000000e+00 0.0000e+00 -1.0000e+00
<mgrwt>
<rscale>  3 0.34964932E+02</rscale>
<asrwt>0</asrwt>
<pdfrwt beam="2">  1        2 0.25766864E+00 0.34964932E+02</pdfrwt>
<pdfrwt beam="1">  1       -2 0.12323170E-02 0.34964932E+02</pdfrwt>
<totfact> 0.15263237E+04</totfact>
</mgrwt>
</event>
<event>
 5      1 +6.6372287e+07 3.04072400e+01 7.54677100e-03 1.59363000e-01
       21 -1    0    0  502  501 +0.0000000000e+00 +0.0000000000e+00 +2.3031354025e+01 2.3031354025e+01 0.0000000000e+00 0.0000e+00 1.0000e+00
       21 -1    0    0  505  502 -0.0000000000e+00 -0.0000000000e+00 -1.8224559169e+02 1.8224559169e+02 0.0000000000e+00 0.0000e+00 1.0000e+00
       21  1    1    2  503  504 +2.5754317368e+01 -4.7408923451e+01 -9.5689678327e+01 1.0985174293e+02 0.0000000000e+00 0.0000e+00 1.0000e+00
       21  1    1    2  504  501 -1.1009373966e+01 +2.4882397341e+01 -8.6110655342e-01 2.7222812438e+01 0.0000000000e+00 0.0000e+00 1.0000e+00
       21  1    1    2  505  503 -1.4744943402e+01 +2.2526526110e+01 -6.2663452789e+01 6.8202390354e+01 0.0000000000e+00 0.0000e+00 1.0000e+00
<mgrwt>
<rscale>  3 0.30407236E+02</rscale>
<asrwt>0</asrwt>
<pdfrwt beam="1">  1       21 0.35432851E-02 0.30407236E+02</pdfrwt>
<pdfrwt beam="2">  1       21 0.28037785E-01 0.30407236E+02</pdfrwt>
<totfact> 0.50703811E+06</totfact>
</mgrwt>
</event>
<event>
 5      1 +6.6372287e+07 2.46316000e+01 7.54677100e-03 1.66635000e-01
       -1 -1    0    0    0  501 -0.0000000000e+00 +0.0000000000e+00 +8.0590561410e+01 8.0590561410e+01 0.0000000000e+00 0.0000e+00 -1.0000e+00
       21 -1    0    0  504  502 +0.0000000000e+00 -0.0000000000e+00 -6.2809489236e+02 6.2809489236e+02 0.0000000000e+00 0.0000e+00 -1.0000e+00
       21  1    1    2  503  502 -1.7815991771e+01 +2.0155583443e+01 -8.5520591269e+00 2.8227554305e+01 0.0000000000e+00 0.0000e+00 -1.0000e+00
       21  1    1    2  504  501 -7.5126314979e+00 -1.9813252642e+01 -6.0724710539e+02 6.0761669795e+02 0.0000000000e+00 0.0000e+00 -1.0000e+00
       -1  1    1    2    0  503 +2.5328623269e+01 -3.4233080119e-01 +6.8294833568e+01 7.2841201522e+01 0.0000000000e+00 0.0000e+00 -1.0000e+00
<mgrwt>
<rscale>  3 0.24631597E+02</rscale>
<asrwt>0</asrwt>
<pdfrwt beam="2">  1       21 0.96629979E-01 0.24631597E+02</pdfrwt>
<pdfrwt beam="1">  1       -1 0.12398548E-01 0.24631597E+02</pdfrwt>
<totfact> 0.37172940E+03</totfact>
</mgrwt>
</event>
<event>
 5      1 +6.6372287e+07 2.48386400e+01 7.54677100e-03 1.66333000e-01
       21 -1    0    0  504  502 +0.0000000000e+00 +0.0000000000e+00 +3.4621419117e+02 3.4621419117e+02 0.0000000000e+00 0.0000e+00 -1.0000e+00
       21 -1    0    0  501  503 -0.0000000000e+00 -0.0000000000e+00 -1.8471995540e+01 1.8471995540e+01 0.0000000000e+00 0.0000e+00 -1.0000e+00
       21  1    1    2  504  503 +2.4946999999e+01 +1.5290445725e+00 +2.8662250343e+02 2.8771018449e+02 0.0000000000e+00 0.0000e+00 -1.0000e+00
        2  1    1    2  501    0 -1.3234624373e+00 -2.4231607655e+01 -1.6739991815e-01 2.4268300005e+01 0.0000000000e+00 0.0000e+00 1.0000e+00
       -2  1    1    2    0  502 -2.3623537562e+01 +2.2702563083e+01 +4.1287092120e+01 5.2707702219e+01 0.0000000000e+00 0.0000e+00 -1.0000e+00
<mgrwt>
<rscale>  3 0.24838643E+02</rscale>
<asrwt>0</asrwt>
<pdfrwt beam="1">  1       21 0.53263717E-01 0.24838643E+02</pdfrwt>
<pdfrwt beam="2">  1       21 0.28418457E-02 0.24838643E+02</pdfrwt>
<totfact> 0.20767655E+06</totfact>
</mgrwt>
</event>
<event>
 5      1 +6.6372287e+07 3.39483100e+01 7.54677100e-03 1.55814300e-01
       -2 -1    0    0    0  501 -0.0000000000e+00 +0.0000000000e+00 +2.5448573077e+01 2.5448573077e+01 0.0000000000e+00 0.0000e+00 -1.0000e+00
        2 -1    0    0  503    0 +0.0000000000e+00 -0.0000000000e+00 -1.0820396951e+03 1.0820396951e+03 0.0000000000e+00 0.0000e+00 -1.0000e+00
       21  1    1    2  503  501 +4.5361883356e+01 +2.5711927708e+01 -5.3689272592e+02 5.3941876389e+02 0.0000000000e+00 0.0000e+00 -1.0000e+00
        2  1    1    2  502    0 -1.6783464189e+01 -2.3932337766e+01 -5.3486766152e+02 5.3566580701e+02 0.0000000000e+00 0.0000e+00 -1.0000e+00
       -2  1    1    2    0  502 -2.8578419167e+01 -1.7795899428e+00 +1.5169265433e+01 3.2403697261e+01 0.0000000000e+00 0.0000e+00 -1.0000e+00
<mgrwt>
<rscale>  3 0.33948308E+02</rscale>
<asrwt>0</asrwt>
<pdfrwt beam="2">  1        2 0.16646767E+00 0.33948308E+02</pdfrwt>
<pdfrwt beam="1">  1       -2 0.39151646E-02 0.33948308E+02</pdfrwt>
<totfact> 0.59650818E+03</totfact>
</mgrwt>
</event>
<event>
 5      1 +6.6372287e+07 4.00572800e+01 7.54677100e-03 1.50779000e-01
       21 -1    0    0  505  501 +0.0000000000e+00 +0.0000000000e+00 +3.2066229463e+01 3.2066229463e+01 0.0000000000e+00 0.0000e+00 1.0000e+00
       21 -1    0    0  503  502 -0.0000000000e+00 -0.0000000000e+00 -3.0083738526e+02 3.0083738526e+02 0.0000000000e+00 0.0000e+00 -1.0000e+00
       21  1    1    2  503  504 +3.4238964599e+01 -3.1475020468e+00 -2.1121471239e+02 2.1399501909e+02 0.0000000000e+00 0.0000e+00 -1.0000e+00
       21  1    1    2  504  501 -1.6612873637e+01 +3.9603631259e+01 +6.1874354643e+00 4.3390316167e+01 0.0000000000e+00 0.0000e+00 1.0000e+00
       21  1    1    2  505  502 -1.7626090962e+01 -3.6456129213e+01 -6.3743878874e+01 7.5518279467e+01 0.0000000000e+00 0.0000e+00 1.0000e+00
<mgrwt>
<rscale>  3 0.40057279E+02</rscale>
<asrwt>0</asrwt>
<pdfrwt beam="1">  1       21 0.49332658E-02 0.40057279E+02</pdfrwt>
<pdfrwt beam="2">  1       21 0.46282677E-01 0.40057279E+02</pdfrwt>
<totfact> 0.11855536E+06</totfact>
</mgrwt>
</event>
<event>
 5      1 +6.6372287e+07 4.37051900e+01 7.54677100e-03 1.48259100e-01
        2 -1    0    0  502    0 +0.0000000000e+00 +0.0000000000e+00 +1.7110304904e+03 1.7110304904e+03 0.0000000000e+00 0.0000e+00 -1.0000e+00
        1 -1    0    0  503    0 -0.0000000000e+00 -0.0000000000e+00 -2.0783382913e+01 2.0783382913e+01 0.0000000000e+00 0.0000e+00 1.0000e+00
       21  1    1    2  503  501 -1.4418127206e+01 +2.0747890384e+01 +7.9570356529e+01 8.3485321978e+01 0.0000000000e+00 0.0000e+00 1.0000e+00
        2  1    1    2  501    0 +3.6111610870e+01 -3.0183395268e+01 +1.6215922235e+03 1.6222750769e+03 0.0000000000e+00 0.0000e+00 -1.0000e+00
        1  1    1    2  502    0 -2.1693483664e+01 +9.4355048838e+00 -1.0915472595e+01 2.6053474392e+01 0.0000000000e+00 0.0000e+00 1.0000e+00
<mgrwt>
<rscale>  3 0.43705192E+02</rscale>
<asrwt>0</asrwt>
<pdfrwt beam="1">  1        2 0.26323535E+00 0.43705192E+02</pdfrwt>
<pdfrwt beam="2">  1        1 0.31974449E-02 0.43705192E+02</pdfrwt>
<totfact> 0.43186860E+03</totfact>
</mgrwt>
</event>
<event>
 5      1 +6.6372287e+07 3.25233300e+01 7.54677100e-03 1.57176200e-01
       21 -1    0    0  504  502 +0.0000000000e+00 +0.0000000000e+00 +2.1530668898e+01 2.1530668898e+01 0.0000000000e+00 0.0000e+00 1.0000e+00
        2 -1    0    0  503    0 -0.0000000000e+00 -0.0000000000e+00 -5.8911499310e+02 5.8911499310e+02 0.0000000000e+00 0.0000e+00 -1.0000e+00
       21  1    1    2  503  502 +3.1914103860e+01 -3.6894354070e+01 -1.3312376381e+02 1.4178025208e+02 0.0000000000e+00 0.0000e+00 -1.0000e+00
       21  1    1    2  504  501 -1.0765125773e+01 +2.9189748902e+01 +2.6051922163e+00 3.1220448433e+01 0.0000000000e+00 0.0000e+00 1.0000e+00
        2  1    1    2  501    0 -2.1148978087e+01 +7.7046051684e+00 -4.3706575261e+02 4.3764496149e+02 0.0000000000e+00 0.0000e+00 -1.0000e+00
<mgrwt>
<rscale>  3 0.32523330E+02</rscale>
<asrwt>0</asrwt>
<pdfrwt beam="1">  1       21 0.33124105E-02 0.32523330E+02</pdfrwt>
<pdfrwt beam="2">  1        2 0.90633079E-01 0.32523330E+02</pdfrwt>
<totfact> 0.30633976E+05</totfact>
</mgrwt>
</event>
<event>
 5      1 +6.6372287e+07 3.61852100e+01 7.54677100e-03 1.53832100e-01
       21 -1    0    0  504  501 +0.0000000000e+00 +0.0000000000e+00 +4.3002025114e+01 4.3002025114e+01 0.0000000000e+00 0.0000e+00 1.0000e+00
       21 -1    0    0  503  502 -0.0000000000e+00 -0.0000000000e+00 -3.3404139915e+02 3.3404139915e+02 0.0000000000e+00 0.0000e+00 1.0000e+00
       21  1    1    2  503  505 +5.4545664238e+00 -2.1319807632e+01 -2.9481524350e+02 2.9563544153e+02 0.0000000000e+00 0.0000e+00 1.0000e+00
       21  1    1    2  504  502 +3.1100319594e+01 -8.7134369374e+00 +9.7127797801e+00 3.3726724614e+01 0.0000000000e+00 0.0000e+00 1.0000e+00
       21  1    1    2  505  501 -3.6554886018e+01 +3.0033244569e+01 -5.9369103163e+00 4.7681258113e+01 0.0000000000e+00 0.0000e+00 1.0000e+00
<mgrwt>
<rscale>  3 0.36185209E+02</rscale>
<asrwt>0</asrwt>
<pdfrwt beam="1">  1       21 0.66156963E-02 0.36185209E+02</pdfrwt>
<pdfrwt beam="2">  1       21 0.51390983E-01 0.36185209E+02</pdfrwt>
<totfact> 0.59410236E+05</totfact>
</mgrwt>
</event>
<event>
 5      1 +6.6372287e+07 2.68952500e+01 7.54677100e-03 1.63518300e-01
       21 -1    0    0  503  501 +0.0000000000e+00 +0.0000000000e+00 +2.8770752959e+02 2.8770752959e+02 0.0000000000e+00 0.0000e+00 -1.0000e+00
       21 -1    0    0  504  502 -0.0000000000e+00 -0.0000000000e+00 -2.6931152162e+02 2.6931152162e+02 0.0000000000e+00 0.0000e+00 1.0000e+00
       21  1    1    2  503  502 +2.0961573832e+01 +2.3688081609e+00 -1.7971774862e+02 1.8095156257e+02 0.0000000000e+00 0.0000e+00 1.0000e+00
       21  1    1    2  504  505 -3.7349663467e+00 -2.3130388947e+01 -8.6786083310e+01 8.9893209547e+01 0.0000000000e+00 0.0000e+00 1.0000e+00
       21  1    1    2  505  501 -1.7226607485e+01 +2.0761580786e+01 +2.8489983990e+02 2.8617427909e+02 0.0000000000e+00 0.0000e+00 -1.0000e+00
<mgrwt>
<rscale>  3 0.26895249E+02</rscale>
<asrwt>0</asrwt>
<pdfrwt beam="1">  1       21 0.44262697E-01 0.26895249E+02</pdfrwt>
<pdfrwt beam="2">  1       21 0.41432541E-01 0.26895249E+02</pdfrwt>
<totfact> 0.32158164E+04</totfact>
</mgrwt>
</event>
<event>
 5      1 +6.6372287e+07 2.51016900e+01 7.54677100e-03 1.65954600e-01
        2 -1    0    0  504    0 -0.0000000000e+00 +0.0000000000e+00 +6.4617848855e+01 6.4617848855e+01 0.0000000000e+00 0.0000e+00 -1.0000e+00
       21 -1    0    0  501  502 +0.0000000000e+00 -0.0000000000e+00 -4.5852280566e+01 4.5852280566e+01 0.0000000000e+00 0.0000e+00 1.0000e+00
       21  1    1    2  503  502 +1.2633388858e+01 +1.7296317379e+01 -2.9732559349e+01 3.6644101767e+01 0.0000000000e+00 0.0000e+00 1.0000e+00
       21  1    1    2  504  503 +1.3130515800e+01 -2.4553339855e+01 +1.7570358035e+01 3.2924070597e+01 0.0000000000e+00 0.0000e+00 1.0000e+00
        2  1    1    2  501    0 -2.5763904658e+01 +7.2570224764e+00 +3.0927769604e+01 4.0901957057e+01 0.0000000000e+00 0.0000e+00 -1.0000e+00
<mgrwt>
<rscale>  3 0.25101687E+02</rscale>
<asrwt>0</asrwt>
<pdfrwt beam="2">  1       21 0.70541970E-02 0.25101687E+02</pdfrwt>
<pdfrwt beam="1">  1        2 0.99412075E-02 0.25101687E+02</pdfrwt>
<totfact> 0.89083039E+05</totfact>
</mgrwt>
</event>
<event>
 5      1 +6.6372287e+07 2.65415900e+01 7.54677100e-03 1.63979800e-01
       21 -1    0    0  504  501 +0.0000000000e+00 +0.0000000000e+00 +7.3037786153e+01 7.3037786153e+01 0.0000000000e+00 0.0000e+00 1.0000e+00
       21 -1    0    0  503  502 -0.0000000000e+00 -0.0000000000e+00 -8.2017257442e+01 8.2017257442e+01 0.0000000000e+00 0.0000e+00 1.0000e+00
       21  1    1    2  503  505 +1.8697084487e+01 -8.2924898880e+00 -5.9625078565e+01 6.3035675222e+01 0.0000000000e+00 0.0000e+00 1.0000e+00
       21  1    1    2  504  502 +6.9951105287e+00 +2.5911255642e+01 +5.4380851637e+01 6.0643233464e+01 0.0000000000e+00 0.0000e+00 1.0000e+00
       21  1    1    2  505  501 -2.5692195015e+01 -1.7618765754e+01 -3.7352443596e+00 3.1376134909e+01 0.0000000000e+00 0.0000e+00 1.0000e+00
<mgrwt>
<rscale>  3 0.26541591E+02</rscale>
<asrwt>0</asrwt>
<pdfrwt beam="1">  1       21 0.11236582E-01 0.26541591E+02</pdfrwt>
<pdfrwt beam="2">  1       21 0.12618040E-01 0.26541591E+02</pdfrwt>
<totfact> 0.30903565E+06</totfact>
</mgrwt>
</event>
<event>
 5      1 +6.6372287e+07 2.27761200e+01 7.54677100e-03 1.69516500e-01
       21 -1    0    0  505  501 +0.0000000000e+00 +0.0000000000e+00 +8.6173848945e+01 8.6173848945e+01 0.0000000000e+00 0.0000e+00 1.0000e+00
       21 -1    0    0  504  502 -0.0000000000e+00 -0.0000000000e+00 -6.3585034087e+01 6.3585034087e+01 0.0000000000e+00 0.0000e+00 -1.0000e+00
       21  1    1    2  503  502 -2.7032116927e+01 +8.2973252626e+00 +1.6307827832e+01 3.2642398819e+01 0.0000000000e+00 0.0000e+00 1.0000e+00
       21  1    1    2  504  501 +1.9247818195e+01 +1.2926007751e+01 -5.0735466398e+01 5.5782145282e+01 0.0000000000e+00 0.0000e+00 -1.0000e+00
       21  1    1    2  505  503 +7.7842987316e+00 -2.1223333014e+01 +5.7016453425e+01 6.1334338931e+01 0.0000000000e+00 0.0000e+00 1.0000e+00
<mgrwt>
<rscale>  3 0.22776118E+02</rscale>
<asrwt>0</asrwt>
<pdfrwt beam="1">  1       21 0.13257515E-01 0.22776118E+02</pdfrwt>
<pdfrwt beam="2">  1       21 0.97823130E-02 0.22776118E+02</pdfrwt>
<totfact> 0.35046139E+06</totfact>
</mgrwt>
</event>
<event>
 5      1 +6.6372287e+07 3.80456700e+01 7.54677100e-03 1.52310600e-01
       21 -1    0    0  504  501 +0.0000000000e+00 +0.0000000000e+00 +1.3757684306e+01 1.3757684306e+01 0.0000000000e+00 0.0000e+00 -1.0000e+00
       21 -1    0    0  503  502 -0.0000000000e+00 -0.0000000000e+00 -3.9694458511e+02 3.9694458511e+02 0.0000000000e+00 0.0000e+00 1.0000e+00
       21  1    1    2  503  505 -1.4438846203e+01 -1.7702498483e+01 -8.3619869477e+01 8.6684146783e+01 0.0000000000e+00 0.0000e+00 1.0000e+00
       21  1    1    2  504  502 +1.4547368666e+01 -2.2261281669e+01 -2.7669903846e+02 2.7797400684e+02 0.0000000000e+00 0.0000e+00 1.0000e+00
       21  1    1    2  505  501 -1.0852246356e-01 +3.9963780152e+01 -2.2867992874e+01 4.6044115794e+01 0.0000000000e+00 0.0000e+00 -1.0000e+00
<mgrwt>
<rscale>  3 0.38045671E+02</rscale>
<asrwt>0</asrwt>
<pdfrwt beam="1">  1       21 0.21165667E-02 0.38045671E+02</pdfrwt>
<pdfrwt beam="2">  1       21 0.61068400E-01 0.38045671E+02</pdfrwt>
<totfact> 0.26069372E+06</totfact>
</mgrwt>
</event>
<event>
 5      1 +6.6372287e+07 4.59126200e+01 7.54677100e-03 1.46872300e-01
       21 -1    0    0  503  501 +0.0000000000e+00 +0.0000000000e+00 +2.0311609080e+03 2.0311609080e+03 0.0000000000e+00 0.0000e+00 1.0000e+00
       21 -1    0    0  505  502 -0.0000000000e+00 -0.0000000000e+00 -2.4721053331e+01 2.4721053331e+01 0.0000000000e+00 0.0000e+00 1.0000e+00
       21  1    1    2  503  504 +5.4574055215e+00 +4.5277462040e+01 +1.8656515221e+03 1.8662088398e+03 0.0000000000e+00 0.0000e+00 1.0000e+00
       21  1    1    2  504  502 +3.1344441190e+01 +1.9716704689e+01 +9.5251287709e+01 1.0219603832e+02 0.0000000000e+00 0.0000e+00 1.0000e+00
       21  1    1    2  505  501 -3.6801846712e+01 -6.4994166729e+01 +4.5537044828e+01 8.7477083181e+01 0.0000000000e+00 0.0000e+00 1.0000e+00
<mgrwt>
<rscale>  3 0.45912622E+02</rscale>
<asrwt>0</asrwt>
<pdfrwt beam="1">  1       21 0.31248616E+00 0.45912622E+02</pdfrwt>
<pdfrwt beam="2">  1       21 0.38032406E-02 0.45912622E+02</pdfrwt>
<totfact> 0.16431983E+04</totfact>
</mgrwt>
</event>
<event>
 5      1 +6.6372287e+07 3.23160000e+01 7.54677100e-03 1.57381400e-01
        1 -1    0    0  503    0 -0.0000000000e+00 +0.0000000000e+00 +5.8873030751e+02 5.8873030751e+02 0.0000000000e+00 0.0000e+00 1.0000e+00
       21 -1    0    0  501  502 +0.0000000000e+00 -0.0000000000e+00 -2.0960881505e+01 2.0960881505e+01 0.0000000000e+00 0.0000e+00 -1.0000e+00
       21  1    1    2  503  504 +1.2271827274e+01 +2.2294515262e+01 +1.4647225131e+02 1.4866661885e+02 0.0000000000e+00 0.0000e+00 1.0000e+00
       21  1    1    2  504  502 +2.0219290079e+01 -9.7210766525e-02 -1.3589093295e+01 2.4361703508e+01 0.0000000000e+00 0.0000e+00 -1.0000e+00
        1  1    1    2  501    0 -3.2491117354e+01 -2.2197304495e+01 +4.3488626799e+02 4.3666286666e+02 0.0000000000e+00 0.0000e+00 1.0000e+00
<mgrwt>
<rscale>  3 0.32316004E+02</rscale>
<asrwt>0</asrwt>
<pdfrwt beam="2">  1       21 0.32247515E-02 0.32316004E+02</pdfrwt>
<pdfrwt beam="1">  1        1 0.90573881E-01 0.32316004E+02</pdfrwt>
<totfact> 0.20132875E+05</totfact>
</mgrwt>
</event>
<event>
 5      1 +6.6372287e+07 4.71162200e+01 7.54677100e-03 1.46154700e-01
       21 -1    0    0  503  501 +0.0000000000e+00 +0.0000000000e+00 +3.5698751231e+01 3.5698751231e+01 0.0000000000e+00 0.0000e+00 1.0000e+00
       21 -1    0    0  504  502 -0.0000000000e+00 -0.0000000000e+00 -1.5024197302e+02 1.5024197302e+02 0.0000000000e+00 0.0000e+00 -1.0000e+00
       21  1    1    2  503  505 -1.8393329399e+01 -2.0730266036e+01 +1.5134275211e+01 3.1576966011e+01 0.0000000000e+00 0.0000e+00 1.0000e+00
       21  1    1    2  504  501 +3.0318818959e+01 +4.1981229081e+01 -1.1447233348e+02 1.2564063639e+02 0.0000000000e+00 0.0000e+00 -1.0000e+00
       21  1    1    2  505  502 -1.1925489561e+01 -2.1250963045e+01 -1.5205163517e+01 2.8723121856e+01 0.0000000000e+00 0.0000e+00 1.0000e+00
<mgrwt>
<rscale>  3 0.47116224E+02</rscale>
<asrwt>0</asrwt>
<pdfrwt beam="1">  1       21 0.54921154E-02 0.47116224E+02</pdfrwt>
<pdfrwt beam="2">  1       21 0.23114150E-01 0.47116224E+02</pdfrwt>
<totfact> 0.37322948E+06</totfact>
</mgrwt>
</event>
<event>
 5      1 +6.6372287e+07 5.00477800e+01 7.54677100e-03 1.44508400e-01
        2 -1    0    0  503    0 +0.0000000000e+00 +0.0000000000e+00 +3.8911714874e+02 3.8911714874e+02 0.0000000000e+00 0.0000e+00 1.0000e+00
        2 -1    0    0  502    0 -0.0000000000e+00 -0.0000000000e+00 -3.0237812812e+02 3.0237812812e+02 0.0000000000e+00 0.0000e+00 -1.0000e+00
       21  1    1    2  503  501 +2.7035206944e+01 +1.1996257553e+01 +1.2886486117e+02 1.3221560064e+02 0.0000000000e+00 0.0000e+00 1.0000e+00
        2  1    1    2  501    0 -2.2748413249e+01 -4.4788353833e+01 -2.9753120134e+02 3.0174211293e+02 0.0000000000e+00 0.0000e+00 -1.0000e+00
        2  1    1    2  502    0 -4.2867936948e+00 +3.2792096280e+01 +2.5540536079e+02 2.5753756328e+02 0.0000000000e+00 0.0000e+00 1.0000e+00
<mgrwt>
<rscale>  3 0.50047775E+02</rscale>
<asrwt>0</asrwt>
<pdfrwt beam="1">  1        2 0.59864176E-01 0.50047775E+02</pdfrwt>
<pdfrwt beam="2">  1        2 0.46519712E-01 0.50047775E+02</pdfrwt>
<totfact> 0.13730376E+03</totfact>
</mgrwt>
</event>
<event>
 5      1 +6.6372287e+07 2.97093000e+01 7.54677100e-03 1.60132400e-01
       21 -1    0    0  503  502 +0.0000000000e+00 +0.0000000000e+00 +1.1854806368e+02 1.1854806368e+02 0.0000000000e+00 0.0000e+00 1.0000e+00
        1 -1    0    0  504    0 -0.0000000000e+00 -0.0000000000e+00 -2.8789738375e+02 2.8789738375e+02 0.0000000000e+00 0.0000e+00 1.0000e+00
       21  1    1    2  503  501 -2.1808462259e+01 +1.9091314842e+01 +2.7760747717e+01 4.0134105724e+01 0.0000000000e+00 0.0000e+00 1.0000e+00
       21  1    1    2  504  502 +5.0913227713e+01 -2.3763320633e+01 +7.4385366719e+01 9.3220356927e+01 0.0000000000e+00 0.0000e+00 1.0000e+00
        1  1    1    2  501    0 -2.9104765455e+01 +4.6720057908e+00 -2.7149543450e+02 2.7309098477e+02 0.0000000000e+00 0.0000e+00 1.0000e+00
<mgrwt>
<rscale>  3 0.29709305E+02</rscale>
<asrwt>0</asrwt>
<pdfrwt beam="1">  1       21 0.18238164E-01 0.29709305E+02</pdfrwt>
<pdfrwt beam="2">  1        1 0.44291905E-01 0.29709305E+02</pdfrwt>
<totfact> 0.26942502E+04</totfact>
</mgrwt>
</event>
<event>
 5      1 +6.6372287e+07 2.76081800e+01 7.54677100e-03 1.62613900e-01
        1 -1    0    0  501    0 +0.0000000000e+00 +0.0000000000e+00 +3.5918383131e+02 3.5918383131e+02 0.0000000000e+00 0.0000e+00 1.0000e+00
       -4 -1    0    0    0  501 -0.0000000000e+00 -0.0000000000e+00 -9.9599640123e+00 9.9599640123e+00 0.0000000000e+00 0.0000e+00 -1.0000e+00
       21  1    1    2  503  502 -1.0226056517e+01 -1.7566903028e+01 +5.4113018863e+01 5.7804732716e+01 0.0000000000e+00 0.0000e+00 1.0000e+00
        1  1    1    2  502    0 -1.8623508510e+01 -1.7954792984e+01 +2.3170430073e+02 2.3314393117e+02 0.0000000000e+00 0.0000e+00 1.0000e+00
       -4  1    1    2    0  503 +2.8849565027e+01 +3.5521696012e+01 +6.3406547700e+01 7.8195131441e+01 0.0000000000e+00 0.0000e+00 -1.0000e+00
<mgrwt>
<rscale>  3 0.27608180E+02</rscale>
<asrwt>0</asrwt>
<pdfrwt beam="1">  1        1 0.55259041E-01 0.27608180E+02</pdfrwt>
<pdfrwt beam="2">  1       -4 0.15323024E-02 0.27608180E+02</pdfrwt>
<totfact> 0.31455192E+04</totfact>
</mgrwt>
</event>
<event>
 5      1 +6.6372287e+07 3.28240500e+01 7.54677100e-03 1.56881800e-01
       21 -1    0    0  504  501 +0.0000000000e+00 +0.0000000000e+00 +5.7881981423e+00 5.7881981423e+00 0.0000000000e+00 0.0000e+00 -1.0000e+00
       21 -1    0    0  505  502 -0.0000000000e+00 -0.0000000000e+00 -1.2709795693e+03 1.2709795693e+03 0.0000000000e+00 0.0000e+00 1.0000e+00
       21  1    1    2  503  501 -2.9221921883e+01 +8.0360733545e+00 -5.6807285970e+02 5.6888071959e+02 0.0000000000e+00 0.0000e+00 1.0000e+00
       21  1    1    2  504  502 +1.6963846300e+01 -2.9307832371e+01 -5.0500567831e+01 6.0803194577e+01 0.0000000000e+00 0.0000e+00 -1.0000e+00
       21  1    1    2  505  503 +1.2258075583e+01 +2.1271759017e+01 -6.4661794361e+02 6.4708385326e+02 0.0000000000e+00 0.0000e+00 1.0000e+00
<mgrwt>
<rscale>  3 0.32824047E+02</rscale>
<asrwt>0</asrwt>
<pdfrwt beam="1">  1       21 0.89049153E-03 0.32824047E+02</pdfrwt>
<pdfrwt beam="2">  1       21 0.19553543E+00 0.32824047E+02</pdfrwt>
<totfact> 0.68369125E+05</totfact>
</mgrwt>
</event>
<event>
 5      1 +6.6372287e+07 2.96747300e+01 7.54677100e-03 1.60171200e-01
       21 -1    0    0  504  502 +0.0000000000e+00 +0.0000000000e+00 +4.0441816137e+01 4.0441816137e+01 0.0000000000e+00 0.0000e+00 -1.0000e+00
        2 -1    0    0  503    0 -0.0000000000e+00 -0.0000000000e+00 -1.0683900114e+02 1.0683900114e+02 0.0000000000e+00 0.0000e+00 1.0000e+00
       21  1    1    2  503  502 -2.6554357024e+01 +3.2973328106e+01 +7.1332905671e+00 4.2933181546e+01 0.0000000000e+00 0.0000e+00 -1.0000e+00
       21  1    1    2  504  501 +2.0427248287e+01 -1.1559769425e+01 +3.8860694556e+00 2.3790802373e+01 0.0000000000e+00 0.0000e+00 -1.0000e+00
        2  1    1    2  501    0 +6.1271087369e+00 -2.1413558681e+01 -7.7416545026e+01 8.0556833358e+01 0.0000000000e+00 0.0000e+00 1.0000e+00
<mgrwt>
<rscale>  3 0.29674731E+02</rscale>
<asrwt>0</asrwt>
<pdfrwt beam="1">  1       21 0.62218180E-02 0.29674731E+02</pdfrwt>
<pdfrwt beam="2">  1        2 0.16436769E-01 0.29674731E+02</pdfrwt>
<totfact> 0.63902127E+05</totfact>
</mgrwt>
</event>
<event>
 5      1 +6.6372287e+07 2.77849600e+01 7.54677100e-03 1.62394800e-01
       -2 -1    0    0    0  501 -0.0000000000e+00 +0.0000000000e+00 +5.5901367143e+01 5.5901367143e+01 0.0000000000e+00 0.0000e+00 -1.0000e+00
        4 -1    0    0  501    0 +0.0000000000e+00 -0.0000000000e+00 -1.6721775392e+02 1.6721775392e+02 0.0000000000e+00 0.0000e+00 1.0000e+00
       21  1    1    2  503  502 -1.7214919673e+01 +1.5725661972e+01 -4.6993551561e+00 2.3785160136e+01 0.0000000000e+00 0.0000e+00 -1.0000e+00
        4  1    1    2  502    0 -7.1368635003e+00 -2.7166369610e+01 -1.4763278291e+02 1.5028102025e+02 0.0000000000e+00 0.0000e+00 1.0000e+00
       -2  1    1    2    0  503 +2.4351783173e+01 +1.1440707638e+01 +4.1015751290e+01 4.9052940675e+01 0.0000000000e+00 0.0000e+00 -1.0000e+00
<mgrwt>
<rscale>  3 0.27784960E+02</rscale>
<asrwt>0</asrwt>
<pdfrwt beam="2">  1        4 0.25725808E-01 0.27784960E+02</pdfrwt>
<pdfrwt beam="1">  1       -2 0.86002106E-02 0.27784960E+02</pdfrwt>
<totfact> 0.26447976E+03</totfact>
</mgrwt>
</event>
<event>
 5      1 +6.6372287e+07 5.39590300e+01 7.54677100e-03 1.42508700e-01
       21 -1    0    0  504  501 +0.0000000000e+00 +0.0000000000e+00 +5.9800586950e+01 5.9800586950e+01 0.0000000000e+00 0.0000e+00 1.0000e+00
       21 -1    0    0  501  502 -0.0000000000e+00 -0.0000000000e+00 -7.5246990846e+01 7.5246990846e+01 0.0000000000e+00 0.0000e+00 1.0000e+00
       21  1    1    2  503  505 +1.7215966258e+01 -1.3481800279e+01 -1.3120982800e+01 2.5501149436e+01 0.0000000000e+00 0.0000e+00 -1.0000e+00
       21  1    1    2  504  503 -4.4948096317e+01 +2.7284215874e+01 +3.3376063191e+01 6.2279381760e+01 0.0000000000e+00 0.0000e+00 1.0000e+00
       21  1    1    2  505  502 +2.7732130059e+01 -1.3802415596e+01 -3.5701484287e+01 4.7267046599e+01 0.0000000000e+00 0.0000e+00 1.0000e+00
<mgrwt>
<rscale>  3 0.53959031E+02</rscale>
<asrwt>0</asrwt>
<pdfrwt beam="1">  1       21 0.92000904E-02 0.53959031E+02</pdfrwt>
<pdfrwt beam="2">  1       21 0.11576460E-01 0.53959031E+02</pdfrwt>
<totfact> 0.54280239E+06</totfact>
</mgrwt>
</event>
<event>
 5      1 +6.6372287e+07 3.74932000e+01 7.54677100e-03 1.52751300e-01
       21 -1    0    0  505  501 +0.0000000000e+00 +0.0000000000e+00 +7.5616997299e+02 7.5616997299e+02 0.0000000000e+00 0.0000e+00 1.0000e+00
       21 -1    0    0  503  502 -0.0000000000e+00 -0.0000000000e+00 -9.5383624010e+00 9.5383624010e+00 0.0000000000e+00 0.0000e+00 1.0000e+00
       21  1    1    2  503  501 +2.4198598086e+01 -2.8579386523e+01 +4.8877048754e+01 6.1573690634e+01 0.0000000000e+00 0.0000e+00 1.0000e+00
       21  1    1    2  504  502 -4.1183674764e+01 +1.1831705659e+01 +1.5380528884e+02 1.5966261679e+02 0.0000000000e+00 0.0000e+00 1.0000e+00
       21  1    1    2  505  504 +1.6985076678e+01 +1.6747680864e+01 +5.4394927300e+02 5.4447202797e+02 0.0000000000e+00 0.0000e+00 1.0000e+00
<mgrwt>
<rscale>  3 0.37493203E+02</rscale>
<asrwt>0</asrwt>
<pdfrwt beam="1">  1       21 0.11633379E+00 0.37493203E+02</pdfrwt>
<pdfrwt beam="2">  1       21 0.14674410E-02 0.37493203E+02</pdfrwt>
<totfact> 0.11386933E+06</totfact>
</mgrwt>
</event>
<event>
 5      1 +6.6372287e+07 4.04284600e+01 7.54677100e-03 1.50508200e-01
       21 -1    0    0  502  503 +0.0000000000e+00 +0.0000000000e+00 +4.0351583823e+02 4.0351583823e+02 0.0000000000e+00 0.0000e+00 -1.0000e+00
        4 -1    0    0  503    0 -0.0000000000e+00 -0.0000000000e+00 -1.3201441918e+01 1.3201441918e+01 0.0000000000e+00 0.0000e+00 1.0000e+00
        4  1    1    2  501    0 +4.2439120380e+01 +1.6559287496e+01 +4.1887418346e+01 6.1885739526e+01 0.0000000000e+00 0.0000e+00 1.0000e+00
        4  1    1    2  502    0 -2.1117804890e+01 +8.9613985453e+00 +2.4763202138e+02 2.4869235283e+02 0.0000000000e+00 0.0000e+00 -1.0000e+00
       -4  1    1    2    0  501 -2.1321315491e+01 -2.5520686042e+01 +1.0079495659e+02 1.0613918778e+02 0.0000000000e+00 0.0000e+00 1.0000e+00
<mgrwt>
<rscale>  3 0.40428461E+02</rscale>
<asrwt>0</asrwt>
<pdfrwt beam="1">  1       21 0.62079350E-01 0.40428461E+02</pdfrwt>
<pdfrwt beam="2">  1        4 0.20309914E-02 0.40428461E+02</pdfrwt>
<totfact> 0.80181641E+04</totfact>
</mgrwt>
</event>
<event>
 5      1 +6.6372287e+07 3.42643000e+01 7.54677100e-03 1.55523200e-01
        1 -1    0    0  504    0 -0.0000000000e+00 +0.0000000000e+00 +3.3344584104e+03 3.3344584104e+03 0.0000000000e+00 0.0000e+00 -1.0000e+00
       21 -1    0    0  503  502 +0.0000000000e+00 -0.0000000000e+00 -9.8032652357e-01 9.8032652357e-01 0.0000000000e+00 0.0000e+00 1.0000e+00
       21  1    1    2  503  501 -1.6378085835e+01 +1.3734600814e+01 +2.6780940543e+02 2.6866104777e+02 0.0000000000e+00 0.0000e+00 1.0000e+00
       21  1    1    2  504  502 -2.1482442393e+01 -1.5710524314e+01 +4.2265106582e+02 4.2348818088e+02 0.0000000000e+00 0.0000e+00 1.0000e+00
        1  1    1    2  501    0 +3.7860528228e+01 +1.9759235008e+00 +2.6430176126e+03 2.6432895082e+03 0.0000000000e+00 0.0000e+00 -1.0000e+00
<mgrwt>
<rscale>  3 0.34264300E+02</rscale>
<asrwt>0</asrwt>
<pdfrwt beam="2">  1       21 0.15082213E-03 0.34264300E+02</pdfrwt>
<pdfrwt beam="1">  1        1 0.51298452E+00 0.34264300E+02</pdfrwt>
<totfact> 0.33282672E+05</totfact>
</mgrwt>
</event>
<event>
 5      1 +6.6372287e+07 1.19571300e+02 7.54677100e-03 1.24380600e-01
       -1 -1    0    0    0  501 -0.0000000000e+00 +0.0000000000e+00 +8.7854154861e+01 8.7854154861e+01 0.0000000000e+00 0.0000e+00 1.0000e+00
        2 -1    0    0  503    0 +0.0000000000e+00 -0.0000000000e+00 -1.7934232150e+03 1.7934232150e+03 0.0000000000e+00 0.0000e+00 -1.0000e+00
       21  1    1    2  503  501 +1.7605310395e+01 +1.3701422770e+01 +2.6274785914e+01 3.4467960701e+01 0.0000000000e+00 0.0000e+00 1.0000e+00
        2  1    1    2  502    0 +1.1756210603e+02 +1.7577983299e+01 -1.7004020433e+03 1.7045518306e+03 0.0000000000e+00 0.0000e+00 -1.0000e+00
       -1  1    1    2    0  502 -1.3516741643e+02 -3.1279406068e+01 -3.1441802775e+01 1.4225757860e+02 0.0000000000e+00 0.0000e+00 1.0000e+00
<mgrwt>
<rscale>  3 0.11957126E+03</rscale>
<asrwt>0</asrwt>
<pdfrwt beam="2">  1        2 0.27591127E+00 0.11957126E+03</pdfrwt>
<pdfrwt beam="1">  1       -1 0.13516023E-01 0.11957126E+03</pdfrwt>
<totfact> 0.43015636E+02</totfact>
</mgrwt>
</event>
<event>
 5      1 +6.6372287e+07 2.58481600e+01 7.54677100e-03 1.64911000e-01
       21 -1    0    0  504  501 +0.0000000000e+00 +0.0000000000e+00 +1.4121175553e+01 1.4121175553e+01 0.0000000000e+00 0.0000e+00 -1.0000e+00
       21 -1    0    0  501  502 -0.0000000000e+00 -0.0000000000e+00 -4.5285316425e+02 4.5285316425e+02 0.0000000000e+00 0.0000e+00 1.0000e+00
       21  1    1    2  503  505 +1.4043566251e+01 +1.9773590139e+01 -2.4347029469e+02 2.4467529711e+02 0.0000000000e+00 0.0000e+00 1.0000e+00
       21  1    1    2  504  503 -2.6394599884e+01 -1.3369434684e+00 -6.6055666935e-01 2.6436691472e+01 0.0000000000e+00 0.0000e+00 -1.0000e+00
       21  1    1    2  505  502 +1.2351033633e+01 -1.8436646670e+01 -1.9460113733e+02 1.9586235121e+02 0.0000000000e+00 0.0000e+00 1.0000e+00
<mgrwt>
<rscale>  3 0.25848162E+02</rscale>
<asrwt>0</asrwt>
<pdfrwt beam="1">  1       21 0.21724885E-02 0.25848162E+02</pdfrwt>
<pdfrwt beam="2">  1       21 0.69669719E-01 0.25848162E+02</pdfrwt>
<totfact> 0.18427689E+06</totfact>
</mgrwt>
</event>
<event>
 5      1 +6.6372287e+07 5.64794400e+01 7.54677100e-03 1.41322900e-01
       21 -1    0    0  503  502 +0.0000000000e+00 +0.0000000000e+00 +3.7881487994e+00 3.7881487994e+00 0.0000000000e+00 0.0000e+00 -1.0000e+00
        1 -1    0    0  502    0 -0.0000000000e+00 -0.0000000000e+00 -8.3293306677e+02 8.3293306677e+02 0.0000000000e+00 0.0000e+00 1.0000e+00
       21  1    1    2  503  504 +2.2042587179e+01 +4.9935512809e+01 -3.4469253261e+02 3.4898764036e+02 0.0000000000e+00 0.0000e+00 -1.0000e+00
       21  1    1    2  504  501 -1.0400442402e+01 -2.1391345840e+01 -1.5133248122e+02 1.5319033504e+02 0.0000000000e+00 0.0000e+00 1.0000e+00
        1  1    1    2  501    0 -1.1642144777e+01 -2.8544166969e+01 -3.3311990414e+02 3.3454324016e+02 0.0000000000e+00 0.0000e+00 1.0000e+00
<mgrwt>
<rscale>  3 0.56479436E+02</rscale>
<asrwt>0</asrwt>
<pdfrwt beam="1">  1       21 0.58279180E-03 0.56479436E+02</pdfrwt>
<pdfrwt beam="2">  1        1 0.12814362E+00 0.56479436E+02</pdfrwt>
<totfact> 0.18915759E+06</totfact>
</mgrwt>
</event>
<event>
 5      1 +6.6372287e+07 1.20437600e+02 7.54677100e-03 1.24237700e-01
       21 -1    0    0  503  502 +0.0000000000e+00 +0.0000000000e+00 +7.6326880933e+01 7.6326880933e+01 0.0000000000e+00 0.0000e+00 -1.0000e+00
        1 -1    0    0  504    0 -0.0000000000e+00 -0.0000000000e+00 -5.6424004213e+02 5.6424004213e+02 0.0000000000e+00 0.0000e+00 -1.0000e+00
       21  1    1    2  503  501 -1.3358633684e+02 -3.2803021929e+01 -2.5791576009e+01 1.3995196687e+02 0.0000000000e+00 0.0000e+00 -1.0000e+00
       21  1    1    2  504  502 +9.1619991808e+01 +2.3833933827e+01 -1.0682884494e+02 1.4273990827e+02 0.0000000000e+00 0.0000e+00 -1.0000e+00
        1  1    1    2  501    0 +4.1966345031e+01 +8.9690881026e+00 -3.5529274025e+02 3.5787504793e+02 0.0000000000e+00 0.0000e+00 -1.0000e+00
<mgrwt>
<rscale>  3 0.12043761E+03</rscale>
<asrwt>0</asrwt>
<pdfrwt beam="1">  1       21 0.11742597E-01 0.12043761E+03</pdfrwt>
<pdfrwt beam="2">  1        1 0.86806160E-01 0.12043761E+03</pdfrwt>
<totfact> 0.26061044E+04</totfact>
</mgrwt>
</event>
<event>
 5      1 +6.6372287e+07 5.37227900e+01 7.54677100e-03 1.42623700e-01
       21 -1    0    0  504  501 +0.0000000000e+00 +0.0000000000e+00 +1.3304377309e+02 1.3304377309e+02 0.0000000000e+00 0.0000e+00 -1.0000e+00
       21 -1    0    0  503  502 -0.0000000000e+00 -0.0000000000e+00 -7.0963777946e+01 7.0963777946e+01 0.0000000000e+00 0.0000e+00 -1.0000e+00
       21  1    1    2  503  501 -1.5841020033e+01 +3.7513476754e+01 -1.3490766536e+01 4.2897548130e+01 0.0000000000e+00 0.0000e+00 -1.0000e+00
       21  1    1    2  504  505 -5.0497052458e+01 -2.8085691040e+00 +6.9558481825e+01 8.6001295113e+01 0.0000000000e+00 0.0000e+00 -1.0000e+00
       21  1    1    2  505  502 +6.6338072490e+01 -3.4704907650e+01 +6.0122798510e+00 7.5108707789e+01 0.0000000000e+00 0.0000e+00 -1.0000e+00
<mgrwt>
<rscale>  3 0.53722789E+02</rscale>
<asrwt>0</asrwt>
<pdfrwt beam="1">  1       21 0.20468273E-01 0.53722789E+02</pdfrwt>
<pdfrwt beam="2">  1       21 0.10917504E-01 0.53722789E+02</pdfrwt>
<totfact> 0.14842924E+06</totfact>
</mgrwt>
</event>
<event>
 5      1 +6.6372287e+07 4.63666500e+01 7.54677100e-03 1.46598600e-01
       21 -1    0    0  504  501 +0.0000000000e+00 +0.0000000000e+00 +7.9404929403e+01 7.9404929403e+01 0.0000000000e+00 0.0000e+00 -1.0000e+00
       21 -1    0    0  503  502 -0.0000000000e+00 -0.0000000000e+00 -4.0571876305e+01 4.0571876305e+01 0.0000000000e+00 0.0000e+00 1.0000e+00
       21  1    1    2  503  501 +3.8096004013e+01 -2.0103472745e+01 +5.5898111257e+01 7.0569497520e+01 0.0000000000e+00 0.0000e+00 -1.0000e+00
       21  1    1    2  504  505 -2.4864947573e+01 +3.4826673187e+00 -8.6196401551e+00 2.6546050287e+01 0.0000000000e+00 0.0000e+00 1.0000e+00
       21  1    1    2  505  502 -1.3231056440e+01 +1.6620805427e+01 -8.4454180038e+00 2.2861257901e+01 0.0000000000e+00 0.0000e+00 1.0000e+00
<mgrwt>
<rscale>  3 0.46366646E+02</rscale>
<asrwt>0</asrwt>
<pdfrwt beam="1">  1       21 0.12216143E-01 0.46366646E+02</pdfrwt>
<pdfrwt beam="2">  1       21 0.62418271E-02 0.46366646E+02</pdfrwt>
<totfact> 0.93143569E+06</totfact>
</mgrwt>
</event>
<event>
 5      1 +6.6372287e+07 3.23809700e+01 7.54677100e-03 1.57316900e-01
       21 -1    0    0  504  501 +0.0000000000e+00 +0.0000000000e+00 +2.7524908213e+01 2.7524908213e+01 0.0000000000e+00 0.0000e+00 -1.0000e+00
       21 -1    0    0  503  502 -0.0000000000e+00 -0.0000000000e+00 -1.6414512109e+02 1.6414512109e+02 0.0000000000e+00 0.0000e+00 -1.0000e+00
       21  1    1    2  503  505 +1.0735752809e+01 +2.3888282841e+01 -4.2028929504e+01 4.9521079963e+01 0.0000000000e+00 0.0000e+00 -1.0000e+00
       21  1    1    2  504  502 +8.4348718406e+00 -4.8157198822e+01 -9.9473441559e+01 1.1083874971e+02 0.0000000000e+00 0.0000e+00 -1.0000e+00
       21  1    1    2  505  501 -1.9170624649e+01 +2.4268915981e+01 +4.8821581875e+00 3.1310199631e+01 0.0000000000e+00 0.0000e+00 -1.0000e+00
<mgrwt>
<rscale>  3 0.32380969E+02</rscale>
<asrwt>0</asrwt>
<pdfrwt beam="1">  1       21 0.42346013E-02 0.32380969E+02</pdfrwt>
<pdfrwt beam="2">  1       21 0.25253095E-01 0.32380969E+02</pdfrwt>
<totfact> 0.46542943E+06</totfact>
</mgrwt>
</event>
<event>
 5      1 +6.6372287e+07 3.04619800e+01 7.54677100e-03 1.59303800e-01
        2 -1    0    0  503    0 -0.0000000000e+00 +0.0000000000e+00 +2.2711935090e+03 2.2711935090e+03 0.0000000000e+00 0.0000e+00 1.0000e+00
       21 -1    0    0  504  502 +0.0000000000e+00 -0.0000000000e+00 -2.7585117854e+00 2.7585117854e+00 0.0000000000e+00 0.0000e+00 1.0000e+00
       21  1    1    2  503  502 +2.0648195639e+01 -1.1330743851e+01 +3.5163773314e+02 3.5242563628e+02 0.0000000000e+00 0.0000e+00 1.0000e+00
       21  1    1    2  504  501 -2.3394837542e+01 -2.0181653530e+01 +1.0496115767e+02 1.0941417724e+02 0.0000000000e+00 0.0000e+00 1.0000e+00
        2  1    1    2  501    0 +2.7466419032e+00 +3.1512397381e+01 +1.8118361064e+03 1.8121122073e+03 0.0000000000e+00 0.0000e+00 1.0000e+00
<mgrwt>
<rscale>  3 0.30461979E+02</rscale>
<asrwt>0</asrwt>
<pdfrwt beam="2">  1       21 0.42438824E-03 0.30461979E+02</pdfrwt>
<pdfrwt beam="1">  1        2 0.34941289E+00 0.30461979E+02</pdfrwt>
<totfact> 0.91450792E+05</totfact>
</mgrwt>
</event>
<event>
 5      1 +6.6372287e+07 5.05952900e+01 7.54677100e-03 1.44215700e-01
       21 -1    0    0  503  502 +0.0000000000e+00 +0.0000000000e+00 +1.7310225510e+01 1.7310225510e+01 0.0000000000e+00 0.0000e+00 1.0000e+00
        2 -1    0    0  502    0 -0.0000000000e+00 -0.0000000000e+00 -1.2474989233e+03 1.2474989233e+03 0.0000000000e+00 0.0000e+00 -1.0000e+00
       21  1    1    2  503  504 -2.0960667079e+01 -3.2621697190e+00 -1.3563546253e-01 2.1213432364e+01 0.0000000000e+00 0.0000e+00 1.0000e+00
       21  1    1    2  504  501 -3.0621090753e+01 +1.1876026904e+01 -3.7308678078e+01 4.9705418959e+01 0.0000000000e+00 0.0000e+00 1.0000e+00
        2  1    1    2  501    0 +5.1581757832e+01 -8.6138571850e+00 -1.1927443843e+03 1.1938902975e+03 0.0000000000e+00 0.0000e+00 -1.0000e+00
<mgrwt>
<rscale>  3 0.50595294E+02</rscale>
<asrwt>0</asrwt>
<pdfrwt beam="1">  1       21 0.26631115E-02 0.50595294E+02</pdfrwt>
<pdfrwt beam="2">  1        2 0.19192292E+00 0.50595294E+02</pdfrwt>
<totfact> 0.17875597E+05</totfact>
</mgrwt>
</event>
<event>
 5      1 +6.6372287e+07 5.35686700e+01 7.54677100e-03 1.42699200e-01
       21 -1    0    0  502  501 +0.0000000000e+00 +0.0000000000e+00 +2.0775922111e+01 2.0775922111e+01 0.0000000000e+00 0.0000e+00 -1.0000e+00
       21 -1    0    0  505  502 -0.0000000000e+00 -0.0000000000e+00 -1.9382658620e+02 1.9382658620e+02 0.0000000000e+00 0.0000e+00 -1.0000e+00
       21  1    1    2  503  501 -2.0032585171e+01 +8.2484330843e+00 -1.7029580071e+01 2.7556264521e+01 0.0000000000e+00 0.0000e+00 1.0000e+00
       21  1    1    2  504  503 -3.0721524725e+01 +4.2318877201e+00 -1.1017363691e+01 3.2910534147e+01 0.0000000000e+00 0.0000e+00 -1.0000e+00
       21  1    1    2  505  504 +5.0754109896e+01 -1.2480320804e+01 -1.4500372033e+02 1.5413570964e+02 0.0000000000e+00 0.0000e+00 -1.0000e+00
<mgrwt>
<rscale>  3 0.53568673E+02</rscale>
<asrwt>0</asrwt>
<pdfrwt beam="1">  1       21 0.31962958E-02 0.53568673E+02</pdfrwt>
<pdfrwt beam="2">  1       21 0.29819474E-01 0.53568673E+02</pdfrwt>
<totfact> 0.56798716E+06</totfact>
</mgrwt>
</event>
<event>
 5      1 +6.6372287e+07 3.85025300e+01 7.54677100e-03 1.51953000e-01
       21 -1    0    0  504  502 +0.0000000000e+00 +0.0000000000e+00 +2.2289530809e+02 2.2289530809e+02 0.0000000000e+00 0.0000e+00 -1.0000e+00
        3 -1    0    0  503    0 -0.0000000000e+00 -0.0000000000e+00 -1.1799706113e+01 1.1799706113e+01 0.0000000000e+00 0.0000e+00 1.0000e+00
       21  1    1    2  503  502 +2.1037505294e+01 +3.1358606708e+01 +8.1763268338e+01 9.0062039134e+01 0.0000000000e+00 0.0000e+00 -1.0000e+00
       21  1    1    2  504  501 +1.7522488983e+01 -1.3904294537e+01 +4.7427977092e+01 5.2438345109e+01 0.0000000000e+00 0.0000e+00 -1.0000e+00
        3  1    1    2  501    0 -3.8559994278e+01 -1.7454312171e+01 +8.1904356543e+01 9.2194629956e+01 0.0000000000e+00 0.0000e+00 1.0000e+00
<mgrwt>
<rscale>  3 0.38502528E+02</rscale>
<asrwt>0</asrwt>
<pdfrwt beam="1">  1       21 0.34291583E-01 0.38502528E+02</pdfrwt>
<pdfrwt beam="2">  1        3 0.18153396E-02 0.38502528E+02</pdfrwt>
<totfact> 0.34255031E+05</totfact>
</mgrwt>
</event>
<event>
 5      1 +6.6372287e+07 3.75647200e+01 7.54677100e-03 1.52693700e-01
       21 -1    0    0  503  501 +0.0000000000e+00 +0.0000000000e+00 +5.1007388093e+00 5.1007388093e+00 0.0000000000e+00 0.0000e+00 1.0000e+00
       21 -1    0    0  505  502 -0.0000000000e+00 -0.0000000000e+00 -1.1898429651e+03 1.1898429651e+03 0.0000000000e+00 0.0000e+00 1.0000e+00
       21  1    1    2  503  502 -2.3577055731e+01 +8.6164758199e+00 -5.6840562318e+02 5.6895964152e+02 0.0000000000e+00 0.0000e+00 1.0000e+00
       21  1    1    2  504  501 -1.7661209766e+01 -3.2338872055e+01 -8.6569325177e+01 9.4084903347e+01 0.0000000000e+00 0.0000e+00 1.0000e+00
       21  1    1    2  505  504 +4.1238265497e+01 +2.3722396235e+01 -5.2976727797e+02 5.3189915908e+02 0.0000000000e+00 0.0000e+00 1.0000e+00
<mgrwt>
<rscale>  3 0.37564724E+02</rscale>
<asrwt>0</asrwt>
<pdfrwt beam="1">  1       21 0.78472893E-03 0.37564724E+02</pdfrwt>
<pdfrwt beam="2">  1       21 0.18305279E+00 0.37564724E+02</pdfrwt>
<totfact> 0.98499507E+05</totfact>
</mgrwt>
</event>
<event>
 5      1 +6.6372287e+07 1.43855200e+02 7.54677100e-03 1.20823400e-01
       21 -1    0    0  503  502 +0.0000000000e+00 +0.0000000000e+00 +1.7613958321e+02 1.7613958321e+02 0.0000000000e+00 0.0000e+00 -1.0000e+00
       21 -1    0    0  501  503 -0.0000000000e+00 -0.0000000000e+00 -2.5721546644e+02 2.5721546644e+02 0.0000000000e+00 0.0000e+00 1.0000e+00
       21  1    1    2  504  502 +1.8697441469e+01 +4.6743956885e+01 +6.3444037986e+01 8.0992208136e+01 0.0000000000e+00 0.0000e+00 -1.0000e+00
        1  1    1    2  501    0 +1.5605198954e+01 -1.3052773015e+02 -2.0496954320e+02 2.4350261644e+02 0.0000000000e+00 0.0000e+00 1.0000e+00
       -1  1    1    2    0  504 -3.4302640423e+01 +8.3783773266e+01 +6.0449621991e+01 1.0886022507e+02 0.0000000000e+00 0.0000e+00 -1.0000e+00
<mgrwt>
<rscale>  3 0.14385516E+03</rscale>
<asrwt>0</asrwt>
<pdfrwt beam="1">  1       21 0.27098398E-01 0.14385516E+03</pdfrwt>
<pdfrwt beam="2">  1       21 0.39571610E-01 0.14385516E+03</pdfrwt>
<totfact> 0.81522626E+04</totfact>
</mgrwt>
</event>
<event>
 5      1 +6.6372287e+07 2.99475600e+01 7.54677100e-03 1.59866900e-01
       21 -1    0    0  503  501 +0.0000000000e+00 +0.0000000000e+00 +1.1735167452e+02 1.1735167452e+02 0.0000000000e+00 0.0000e+00 1.0000e+00
       21 -1    0    0  504  502 -0.0000000000e+00 -0.0000000000e+00 -6.7731005686e+01 6.7731005686e+01 0.0000000000e+00 0.0000e+00 1.0000e+00
       21  1    1    2  503  502 -3.0037339775e+01 +1.9906567203e+01 +7.7442255748e+01 8.5415549954e+01 0.0000000000e+00 0.0000e+00 1.0000e+00
       21  1    1    2  504  505 +3.9581584148e+00 -2.3241579138e+01 -5.6222098856e+01 6.0965255831e+01 0.0000000000e+00 0.0000e+00 1.0000e+00
       21  1    1    2  505  501 +2.6079181360e+01 +3.3350119355e+00 +2.8400511938e+01 3.8701874417e+01 0.0000000000e+00 0.0000e+00 1.0000e+00
<mgrwt>
<rscale>  3 0.29947557E+02</rscale>
<asrwt>0</asrwt>
<pdfrwt beam="1">  1       21 0.18054104E-01 0.29947557E+02</pdfrwt>
<pdfrwt beam="2">  1       21 0.10420155E-01 0.29947557E+02</pdfrwt>
<totfact> 0.19218372E+06</totfact>
</mgrwt>
</event>
<event>
 5      1 +6.6372287e+07 5.51267100e+01 7.54677100e-03 1.41950100e-01
       21 -1    0    0  503  501 +0.0000000000e+00 +0.0000000000e+00 +3.3605621517e+02 3.3605621517e+02 0.0000000000e+00 0.0000e+00 1.0000e+00
       21 -1    0    0  504  502 -0.0000000000e+00 -0.0000000000e+00 -1.6748192173e+02 1.6748192173e+02 0.0000000000e+00 0.0000e+00 1.0000e+00
       21  1    1    2  503  502 -3.6502084271e+01 +1.2779288039e+01 +2.6845966100e+00 3.8767504664e+01 0.0000000000e+00 0.0000e+00 1.0000e+00
       21  1    1    2  504  505 +5.6330187720e+01 -2.0382049136e+01 -1.4305805077e+02 1.5509391950e+02 0.0000000000e+00 0.0000e+00 1.0000e+00
       21  1    1    2  505  501 -1.9828103448e+01 +7.6027610964e+00 +3.0894774760e+02 3.0967671273e+02 0.0000000000e+00 0.0000e+00 1.0000e+00
<mgrwt>
<rscale>  3 0.55126711E+02</rscale>
<asrwt>0</asrwt>
<pdfrwt beam="1">  1       21 0.51700956E-01 0.55126711E+02</pdfrwt>
<pdfrwt beam="2">  1       21 0.25766450E-01 0.55126711E+02</pdfrwt>
<totfact> 0.55367291E+04</totfact>
</mgrwt>
</event>
<event>
 5      1 +6.6372287e+07 2.38060800e+01 7.54677100e-03 1.67876700e-01
       21 -1    0    0  503  501 +0.0000000000e+00 +0.0000000000e+00 +5.6292151055e+01 5.6292151055e+01 0.0000000000e+00 0.0000e+00 -1.0000e+00
       21 -1    0    0  501  502 -0.0000000000e+00 -0.0000000000e+00 -1.0100350383e+02 1.0100350383e+02 0.0000000000e+00 0.0000e+00 -1.0000e+00
       21  1    1    2  503  504 -1.7078783867e+01 +1.3980353782e+01 +4.3115131723e+01 4.8436037552e+01 0.0000000000e+00 0.0000e+00 -1.0000e+00
       21  1    1    2  504  505 +1.9550036137e+01 +1.1807248332e+01 -6.8557268747e+00 2.3845670826e+01 0.0000000000e+00 0.0000e+00 -1.0000e+00
       21  1    1    2  505  502 -2.4712522707e+00 -2.5787602114e+01 -8.0970757619e+01 8.5013946502e+01 0.0000000000e+00 0.0000e+00 -1.0000e+00
<mgrwt>
<rscale>  3 0.23806083E+02</rscale>
<asrwt>0</asrwt>
<pdfrwt beam="1">  1       21 0.86603311E-02 0.23806083E+02</pdfrwt>
<pdfrwt beam="2">  1       21 0.15539000E-01 0.23806083E+02</pdfrwt>
<totfact> 0.32926995E+06</totfact>
</mgrwt>
</event>
<event>
 5      1 +6.6372287e+07 4.37816800e+01 7.54677100e-03 1.48209400e-01
       -2 -1    0    0    0  501 -0.0000000000e+00 +0.0000000000e+00 +7.6069687389e+01 7.6069687389e+01 0.0000000000e+00 0.0000e+00 -1.0000e+00
       21 -1    0    0  504  502 +0.0000000000e+00 -0.0000000000e+00 -6.3690305890e+01 6.3690305890e+01 0.0000000000e+00 0.0000e+00 -1.0000e+00
       21  1    1    2  503  502 -3.1851837126e+01 -2.0905814741e+01 -1.0380698209e+01 3.9488625117e+01 0.0000000000e+00 0.0000e+00 -1.0000e+00
       21  1    1    2  504  501 +5.2242018124e+01 +1.1087919075e+01 -1.5683784728e+01 5.5661041227e+01 0.0000000000e+00 0.0000e+00 -1.0000e+00
       -2  1    1    2    0  503 -2.0390180998e+01 +9.8178956656e+00 +3.8443864437e+01 4.4610326936e+01 0.0000000000e+00 0.0000e+00 -1.0000e+00
<mgrwt>
<rscale>  3 0.43781676E+02</rscale>
<asrwt>0</asrwt>
<pdfrwt beam="2">  1       21 0.97985087E-02 0.43781676E+02</pdfrwt>
<pdfrwt beam="1">  1       -2 0.11703029E-01 0.43781676E+02</pdfrwt>
<totfact> 0.29443686E+05</totfact>
</mgrwt>
</event>
<event>
 5      1 +6.6372287e+07 6.86898000e+01 7.54677100e-03 1.36460600e-01
       21 -1    0    0  502  501 +0.0000000000e+00 +0.0000000000e+00 +2.1667938332e+02 2.1667938332e+02 0.0000000000e+00 0.0000e+00 1.0000e+00
       21 -1    0    0  504  502 -0.0000000000e+00 -0.0000000000e+00 -1.5467804492e+02 1.5467804492e+02 0.0000000000e+00 0.0000e+00 1.0000e+00
       21  1    1    2  503  505 -1.1038053112e+01 +2.3433804553e+01 -2.7774504919e+01 3.7979006514e+01 0.0000000000e+00 0.0000e+00 1.0000e+00
       21  1    1    2  504  503 -1.5088204651e+01 +3.2631253632e+01 -1.1446451215e+02 1.1997740276e+02 0.0000000000e+00 0.0000e+00 1.0000e+00
       21  1    1    2  505  501 +2.6126257764e+01 -5.6065058184e+01 +2.0424035546e+02 2.1340101896e+02 0.0000000000e+00 0.0000e+00 1.0000e+00
<mgrwt>
<rscale>  3 0.68689805E+02</rscale>
<asrwt>0</asrwt>
<pdfrwt beam="1">  1       21 0.33335290E-01 0.68689805E+02</pdfrwt>
<pdfrwt beam="2">  1       21 0.23796622E-01 0.68689805E+02</pdfrwt>
<totfact> 0.15057095E+05</totfact>
</mgrwt>
</event>
<event>
 5      1 +6.6372287e+07 5.62723200e+01 7.54677100e-03 1.41417600e-01
       -2 -1    0    0    0  501 -0.0000000000e+00 +0.0000000000e+00 +1.2380787192e+02 1.2380787192e+02 0.0000000000e+00 0.0000e+00 1.0000e+00
       21 -1    0    0  503  502 +0.0000000000e+00 -0.0000000000e+00 -2.0327409785e+03 2.0327409785e+03 0.0000000000e+00 0.0000e+00 1.0000e+00
       21  1    1    2  503  504 +2.3729827285e+01 -2.7343988978e+01 -1.7426108947e+03 1.7429869560e+03 0.0000000000e+00 0.0000e+00 1.0000e+00
       21  1    1    2  504  501 -5.3672579255e+00 -2.5936900616e+01 -2.8286809267e+02 2.8410541727e+02 0.0000000000e+00 0.0000e+00 -1.0000e+00
       -2  1    1    2    0  502 -1.8362569359e+01 +5.3280889594e+01 +1.1654588079e+02 1.2945647716e+02 0.0000000000e+00 0.0000e+00 1.0000e+00
<mgrwt>
<rscale>  3 0.56272325E+02</rscale>
<asrwt>0</asrwt>
<pdfrwt beam="2">  1       21 0.31272939E+00 0.56272325E+02</pdfrwt>
<pdfrwt beam="1">  1       -2 0.19047365E-01 0.56272325E+02</pdfrwt>
<totfact> 0.69988168E+01</totfact>
</mgrwt>
</event>
<event>
 5      1 +6.6372287e+07 3.06264600e+01 7.54677100e-03 1.59126500e-01
       21 -1    0    0  503  501 +0.0000000000e+00 +0.0000000000e+00 +7.3143843443e+00 7.3143843443e+00 0.0000000000e+00 0.0000e+00 1.0000e+00
       21 -1    0    0  505  502 -0.0000000000e+00 -0.0000000000e+00 -2.8991776011e+02 2.8991776011e+02 0.0000000000e+00 0.0000e+00 -1.0000e+00
       21  1    1    2  503  502 -2.7176763448e+01 -5.9122717629e+00 -8.2589250105e+01 8.7146518358e+01 0.0000000000e+00 0.0000e+00 1.0000e+00
       21  1    1    2  504  501 +3.7114675978e+00 -2.1312114619e+01 -3.4556109190e+01 4.0768933069e+01 0.0000000000e+00 0.0000e+00 1.0000e+00
       21  1    1    2  505  504 +2.3465295850e+01 +2.7224386382e+01 -1.6545801647e+02 1.6931669302e+02 0.0000000000e+00 0.0000e+00 -1.0000e+00
<mgrwt>
<rscale>  3 0.30626458E+02</rscale>
<asrwt>0</asrwt>
<pdfrwt beam="1">  1       21 0.11252898E-02 0.30626458E+02</pdfrwt>
<pdfrwt beam="2">  1       21 0.44602736E-01 0.30626458E+02</pdfrwt>
<totfact> 0.12571056E+07</totfact>
</mgrwt>
</event>
<event>
 5      1 +6.6372287e+07 2.39754200e+01 7.54677100e-03 1.67617000e-01
       21 -1    0    0  503  502 +0.0000000000e+00 +0.0000000000e+00 +3.1086457142e+00 3.1086457142e+00 0.0000000000e+00 0.0000e+00 1.0000e+00
        2 -1    0    0  504    0 -0.0000000000e+00 -0.0000000000e+00 -1.1096565876e+03 1.1096565876e+03 0.0000000000e+00 0.0000e+00 1.0000e+00
       21  1    1    2  503  501 +1.8074701851e+01 -1.2471200900e+01 -4.7301063874e+01 5.2149940964e+01 0.0000000000e+00 0.0000e+00 1.0000e+00
       21  1    1    2  504  502 -1.5797907864e+01 -1.5878819740e+01 -2.9957929976e+02 3.0041549170e+02 0.0000000000e+00 0.0000e+00 1.0000e+00
        2  1    1    2  501    0 -2.2767939866e+00 +2.8350020640e+01 -7.5966757822e+02 7.6019980061e+02 0.0000000000e+00 0.0000e+00 1.0000e+00
<mgrwt>
<rscale>  3 0.23975415E+02</rscale>
<asrwt>0</asrwt>
<pdfrwt beam="1">  1       21 0.47825339E-03 0.23975415E+02</pdfrwt>
<pdfrwt beam="2">  1        2 0.17071633E+00 0.23975415E+02</pdfrwt>
<totfact> 0.26724670E+06</totfact>
</mgrwt>
</event>
<event>
 5      1 +6.6372287e+07 2.53344800e+01 7.54677100e-03 1.65624400e-01
       21 -1    0    0  501  502 +0.0000000000e+00 +0.0000000000e+00 +5.1570098369e+02 5.1570098369e+02 0.0000000000e+00 0.0000e+00 1.0000e+00
       -1 -1    0    0    0  501 -0.0000000000e+00 -0.0000000000e+00 -1.8445706221e+02 1.8445706221e+02 0.0000000000e+00 0.0000e+00 -1.0000e+00
       21  1    1    2  503  502 +2.4207533199e+01 -7.3828354628e+00 +5.0432335498e+02 5.0495797578e+02 0.0000000000e+00 0.0000e+00 1.0000e+00
       21  1    1    2  504  503 +8.1618412819e+00 -2.1011090789e+01 -6.9595529015e+00 2.3590611815e+01 0.0000000000e+00 0.0000e+00 -1.0000e+00
       -1  1    1    2    0  504 -3.2369374481e+01 +2.8393926251e+01 -1.6611988060e+02 1.7160945831e+02 0.0000000000e+00 0.0000e+00 -1.0000e+00
<mgrwt>
<rscale>  3 0.25334477E+02</rscale>
<asrwt>0</asrwt>
<pdfrwt beam="1">  1       21 0.79338612E-01 0.25334477E+02</pdfrwt>
<pdfrwt beam="2">  1       -1 0.28378010E-01 0.25334477E+02</pdfrwt>
<totfact> 0.16118883E+03</totfact>
</mgrwt>
</event>
<event>
 5      1 +6.6372287e+07 4.96978700e+01 7.54677100e-03 1.44697800e-01
       -1 -1    0    0    0  501 -0.0000000000e+00 +0.0000000000e+00 +4.1669869678e+01 4.1669869678e+01 0.0000000000e+00 0.0000e+00 1.0000e+00
       21 -1    0    0  501  502 +0.0000000000e+00 -0.0000000000e+00 -7.2169785693e+02 7.2169785693e+02 0.0000000000e+00 0.0000e+00 1.0000e+00
       21  1    1    2  503  502 -1.0137451528e+01 -1.9749989160e+01 -4.1326305480e+02 4.1385889197e+02 0.0000000000e+00 0.0000e+00 1.0000e+00
       21  1    1    2  504  503 +7.1118147579e-01 -2.6001039854e+01 -2.9419229654e+02 2.9533991805e+02 0.0000000000e+00 0.0000e+00 1.0000e+00
       -1  1    1    2    0  504 +9.4262700527e+00 +4.5751029015e+01 +2.7427364092e+01 5.4168916585e+01 0.0000000000e+00 0.0000e+00 1.0000e+00
<mgrwt>
<rscale>  3 0.49697867E+02</rscale>
<asrwt>0</asrwt>
<pdfrwt beam="2">  1       21 0.11103045E+00 0.49697867E+02</pdfrwt>
<pdfrwt beam="1">  1       -1 0.64107485E-02 0.49697867E+02</pdfrwt>
<totfact> 0.70621395E+03</totfact>
</mgrwt>
</event>
<event>
 5      1 +6.6372287e+07 4.01879700e+01 7.54677100e-03 1.50683300e-01
       21 -1    0    0  503  501 +0.0000000000e+00 +0.0000000000e+00 +7.1802510669e+01 7.1802510669e+01 0.0000000000e+00 0.0000e+00 1.0000e+00
       21 -1    0    0  504  502 -0.0000000000e+00 -0.0000000000e+00 -7.1337629671e+01 7.1337629671e+01 0.0000000000e+00 0.0000e+00 1.0000e+00
       21  1    1    2  503  502 +5.8213069507e+00 +5.5036070403e+01 -5.3681175091e+00 5.5602817785e+01 0.0000000000e+00 0.0000e+00 1.0000e+00
       21  1    1    2  504  505 -7.7116246928e+00 -3.4472047188e+01 -2.9891185989e+01 4.6273904012e+01 0.0000000000e+00 0.0000e+00 1.0000e+00
       21  1    1    2  505  501 +1.8903177421e+00 -2.0564023215e+01 +3.5724184496e+01 4.1263418543e+01 0.0000000000e+00 0.0000e+00 1.0000e+00
<mgrwt>
<rscale>  3 0.40187974E+02</rscale>
<asrwt>0</asrwt>
<pdfrwt beam="1">  1       21 0.11046540E-01 0.40187974E+02</pdfrwt>
<pdfrwt beam="2">  1       21 0.10975020E-01 0.40187974E+02</pdfrwt>
<totfact> 0.42308800E+06</totfact>
</mgrwt>
</event>
<event>
 5      1 +6.6372287e+07 2.09126700e+01 7.54677100e-03 1.72776500e-01
       21 -1    0    0  504  501 +0.0000000000e+00 +0.0000000000e+00 +2.1568669659e+02 2.1568669659e+02 0.0000000000e+00 0.0000e+00 1.0000e+00
       21 -1    0    0  503  502 -0.0000000000e+00 -0.0000000000e+00 -4.4598327407e+01 4.4598327407e+01 0.0000000000e+00 0.0000e+00 1.0000e+00
       21  1    1    2  503  501 +1.0489102981e+01 +2.1031084145e+01 +3.3096570840e+00 2.3733554552e+01 0.0000000000e+00 0.0000e+00 1.0000e+00
       21  1    1    2  504  505 -2.0964401963e+01 -3.6307327249e+00 +1.9854727555e+02 1.9968402289e+02 0.0000000000e+00 0.0000e+00 1.0000e+00
       21  1    1    2  505  502 +1.0475298982e+01 -1.7400351420e+01 -3.0768563453e+01 3.6867446552e+01 0.0000000000e+00 0.0000e+00 1.0000e+00
<mgrwt>
<rscale>  3 0.20912670E+02</rscale>
<asrwt>0</asrwt>
<pdfrwt beam="1">  1       21 0.33182568E-01 0.20912670E+02</pdfrwt>
<pdfrwt beam="2">  1       21 0.68612813E-02 0.20912670E+02</pdfrwt>
<totfact> 0.12384532E+06</totfact>
</mgrwt>
</event>
<event>
 5      1 +6.6372287e+07 2.76487000e+01 7.54677100e-03 1.62563500e-01
       21 -1    0    0  504  502 +0.0000000000e+00 +0.0000000000e+00 +8.8315219304e+00 8.8315219304e+00 0.0000000000e+00 0.0000e+00 1.0000e+00
       21 -1    0    0  502  503 -0.0000000000e+00 -0.0000000000e+00 -8.5548998670e+02 8.5548998670e+02 0.0000000000e+00 0.0000e+00 1.0000e+00
       21  1    1    2  504  501 -2.6108367324e+01 +2.7834397992e+01 -5.0511958607e+01 6.3307649761e+01 0.0000000000e+00 0.0000e+00 1.0000e+00
        3  1    1    2  501    0 -1.5502416378e+00 -2.7227504772e+01 -8.3708945045e+01 8.8039353392e+01 0.0000000000e+00 0.0000e+00 -1.0000e+00
       -3  1    1    2    0  503 +2.7658608962e+01 -6.0689322000e-01 -7.1243756111e+02 7.1297450547e+02 0.0000000000e+00 0.0000e+00 1.0000e+00
<mgrwt>
<rscale>  3 0.27648700E+02</rscale>
<asrwt>0</asrwt>
<pdfrwt beam="1">  1       21 0.13586955E-02 0.27648700E+02</pdfrwt>
<pdfrwt beam="2">  1       21 0.13161386E+00 0.27648700E+02</pdfrwt>
<totfact> 0.94752714E+05</totfact>
</mgrwt>
</event>
<event>
 5      1 +6.6372287e+07 3.42335000e+01 7.54677100e-03 1.55551500e-01
       -1 -1    0    0    0  501 -0.0000000000e+00 +0.0000000000e+00 +5.5344269194e+01 5.5344269194e+01 0.0000000000e+00 0.0000e+00 1.0000e+00
       21 -1    0    0  504  502 +0.0000000000e+00 -0.0000000000e+00 -5.5616791251e+02 5.5616791251e+02 0.0000000000e+00 0.0000e+00 -1.0000e+00
       21  1    1    2  503  502 -5.3992539344e+01 -1.9093964990e+01 -4.2937502340e+02 4.3317742845e+02 0.0000000000e+00 0.0000e+00 -1.0000e+00
       21  1    1    2  504  501 +2.0534474104e+01 +1.3341922147e+01 -1.1811465484e+02 1.2062646145e+02 0.0000000000e+00 0.0000e+00 -1.0000e+00
       -1  1    1    2    0  503 +3.3458065241e+01 +5.7520428423e+00 +4.6666034926e+01 5.7708291798e+01 0.0000000000e+00 0.0000e+00 1.0000e+00
<mgrwt>
<rscale>  3 0.34233500E+02</rscale>
<asrwt>0</asrwt>
<pdfrwt beam="2">  1       21 0.85564297E-01 0.34233500E+02</pdfrwt>
<pdfrwt beam="1">  1       -1 0.85145026E-02 0.34233500E+02</pdfrwt>
<totfact> 0.83709286E+03</totfact>
</mgrwt>
</event>
<event>
 5      1 +6.6372287e+07 3.19061800e+01 7.54677100e-03 1.57792600e-01
       21 -1    0    0  505  501 +0.0000000000e+00 +0.0000000000e+00 +3.0941997221e+01 3.0941997221e+01 0.0000000000e+00 0.0000e+00 1.0000e+00
       21 -1    0    0  504  502 -0.0000000000e+00 -0.0000000000e+00 -1.4106991043e+02 1.4106991043e+02 0.0000000000e+00 0.0000e+00 1.0000e+00
       21  1    1    2  503  502 -7.0637436764e+00 -2.8412231374e+01 -9.0188811038e+01 9.4821796033e+01 0.0000000000e+00 0.0000e+00 1.0000e+00
       21  1    1    2  504  501 +1.2887679806e+01 +4.9262952225e+01 -2.1945566891e+01 5.5448522603e+01 0.0000000000e+00 0.0000e+00 1.0000e+00
       21  1    1    2  505  503 -5.8239361293e+00 -2.0850720851e+01 +2.0064647242e+00 2.1741589011e+01 0.0000000000e+00 0.0000e+00 1.0000e+00
<mgrwt>
<rscale>  3 0.31906182E+02</rscale>
<asrwt>0</asrwt>
<pdfrwt beam="1">  1       21 0.47603074E-02 0.31906182E+02</pdfrwt>
<pdfrwt beam="2">  1       21 0.21703063E-01 0.31906182E+02</pdfrwt>
<totfact> 0.50542998E+06</totfact>
</mgrwt>
</event>
<event>
 5      1 +6.6372287e+07 3.48184100e+01 7.54677100e-03 1.55021900e-01
       21 -1    0    0  503  501 +0.0000000000e+00 +0.0000000000e+00 +2.1589074046e+03 2.1589074046e+03 0.0000000000e+00 0.0000e+00 -1.0000e+00
       21 -1    0    0  505  502 -0.0000000000e+00 -0.0000000000e+00 -1.5961454167e+01 1.5961454167e+01 0.0000000000e+00 0.0000e+00 -1.0000e+00
       21  1    1    2  503  504 +2.0024453480e+01 +1.8334123955e+01 +1.9389015022e+03 1.9390915796e+03 0.0000000000e+00 0.0000e+00 -1.0000e+00
       21  1    1    2  504  502 -3.0260374134e+01 +1.8529083324e+01 +8.4480836704e+00 3.6474474489e+01 0.0000000000e+00 0.0000e+00 -1.0000e+00
       21  1    1    2  505  501 +1.0235920654e+01 -3.6863207279e+01 +1.9559636455e+02 1.9930280466e+02 0.0000000000e+00 0.0000e+00 -1.0000e+00
<mgrwt>
<rscale>  3 0.34818413E+02</rscale>
<asrwt>0</asrwt>
<pdfrwt beam="1">  1       21 0.33213937E+00 0.34818413E+02</pdfrwt>
<pdfrwt beam="2">  1       21 0.24556100E-02 0.34818413E+02</pdfrwt>
<totfact> 0.27565033E+04</totfact>
</mgrwt>
</event>
<event>
 5      1 +6.6372287e+07 3.59920600e+01 7.54677100e-03 1.53996300e-01
       21 -1    0    0  505  501 +0.0000000000e+00 +0.0000000000e+00 +9.7186356638e+01 9.7186356638e+01 0.0000000000e+00 0.0000e+00 -1.0000e+00
       21 -1    0    0  501  502 -0.0000000000e+00 -0.0000000000e+00 -2.5874356624e+02 2.5874356624e+02 0.0000000000e+00 0.0000e+00 1.0000e+00
       21  1    1    2  503  502 -1.8438172649e+01 -2.1235714101e+01 -8.7075130972e+01 9.1504099350e+01 0.0000000000e+00 0.0000e+00 1.0000e+00
       21  1    1    2  504  503 +5.0238810426e+01 +4.6817397829e+00 -1.6209235767e+02 1.6976392189e+02 0.0000000000e+00 0.0000e+00 1.0000e+00
       21  1    1    2  505  504 -3.1800637777e+01 +1.6553974318e+01 +8.7610279039e+01 9.4661901640e+01 0.0000000000e+00 0.0000e+00 -1.0000e+00
<mgrwt>
<rscale>  3 0.35992060E+02</rscale>
<asrwt>0</asrwt>
<pdfrwt beam="1">  1       21 0.14951747E-01 0.35992060E+02</pdfrwt>
<pdfrwt beam="2">  1       21 0.39806702E-01 0.35992060E+02</pdfrwt>
<totfact> 0.24770639E+05</totfact>
</mgrwt>
</event>
<event>
 5      1 +6.6372287e+07 4.43353000e+01 7.54677100e-03 1.47853400e-01
       21 -1    0    0  505  501 +0.0000000000e+00 +0.0000000000e+00 +4.1509889175e+01 4.1509889175e+01 0.0000000000e+00 0.0000e+00 1.0000e+00
       21 -1    0    0  504  502 -0.0000000000e+00 -0.0000000000e+00 -1.5021838758e+02 1.5021838758e+02 0.0000000000e+00 0.0000e+00 1.0000e+00
       21  1    1    2  503  501 +2.1728377512e+01 -4.5038835640e+00 +4.7828765006e+00 2.2699851631e+01 0.0000000000e+00 0.0000e+00 1.0000e+00
       21  1    1    2  504  503 +3.7288465851e+01 +1.8488032542e+01 -9.7938315943e+01 1.0641499313e+02 0.0000000000e+00 0.0000e+00 1.0000e+00
       21  1    1    2  505  502 -5.9016843363e+01 -1.3984148978e+01 -1.5553058964e+01 6.2613431996e+01 0.0000000000e+00 0.0000e+00 1.0000e+00
<mgrwt>
<rscale>  3 0.44335296E+02</rscale>
<asrwt>0</asrwt>
<pdfrwt beam="1">  1       21 0.63861368E-02 0.44335296E+02</pdfrwt>
<pdfrwt beam="2">  1       21 0.23110521E-01 0.44335296E+02</pdfrwt>
<totfact> 0.28976826E+06</totfact>
</mgrwt>
</event>
<event>
 5      1 +6.6372287e+07 8.95697900e+01 7.54677100e-03 1.30389700e-01
       -1 -1    0    0    0  502 -0.0000000000e+00 +0.0000000000e+00 +1.0959072147e+02 1.0959072147e+02 0.0000000000e+00 0.0000e+00 -1.0000e+00
       -4 -1    0    0    0  501 +0.0000000000e+00 -0.0000000000e+00 -2.3941333748e+02 2.3941333748e+02 0.0000000000e+00 0.0000e+00 -1.0000e+00
       21  1    1    2  503  501 +4.4433031586e+01 -8.6837769029e+00 +3.1109742872e+01 5.4931943155e+01 0.0000000000e+00 0.0000e+00 -1.0000e+00
       -4  1    1    2    0  502 -7.9188610214e+01 +3.3845172129e+01 -2.1114031298e+02 2.2802754971e+02 0.0000000000e+00 0.0000e+00 -1.0000e+00
       -1  1    1    2    0  503 +3.4755578628e+01 -2.5161395226e+01 +5.0207954089e+01 6.6044566085e+01 0.0000000000e+00 0.0000e+00 -1.0000e+00
<mgrwt>
<rscale>  3 0.89569794E+02</rscale>
<asrwt>0</asrwt>
<pdfrwt beam="2">  1       -4 0.36832821E-01 0.89569794E+02</pdfrwt>
<pdfrwt beam="1">  1       -1 0.16860111E-01 0.89569794E+02</pdfrwt>
<totfact> 0.65999041E+02</totfact>
</mgrwt>
</event>
<event>
 5      1 +6.6372287e+07 3.30531100e+01 7.54677100e-03 1.56660200e-01
       21 -1    0    0  503  502 +0.0000000000e+00 +0.0000000000e+00 +7.4577216351e+00 7.4577216351e+00 0.0000000000e+00 0.0000e+00 -1.0000e+00
        2 -1    0    0  504    0 -0.0000000000e+00 -0.0000000000e+00 -2.9293771215e+03 2.9293771215e+03 0.0000000000e+00 0.0000e+00 1.0000e+00
       21  1    1    2  503  501 -8.0432547113e+00 +3.1734139686e+01 -3.2819056421e+01 4.6355582537e+01 0.0000000000e+00 0.0000e+00 -1.0000e+00
       21  1    1    2  504  502 -6.2607331878e+00 +2.0255158476e+01 -2.7252772679e+02 2.7335111139e+02 0.0000000000e+00 0.0000e+00 1.0000e+00
        2  1    1    2  501    0 +1.4303987899e+01 -5.1989298162e+01 -2.6165726167e+03 2.6171281493e+03 0.0000000000e+00 0.0000e+00 1.0000e+00
<mgrwt>
<rscale>  3 0.33053112E+02</rscale>
<asrwt>0</asrwt>
<pdfrwt beam="1">  1       21 0.11473423E-02 0.33053112E+02</pdfrwt>
<pdfrwt beam="2">  1        2 0.45067321E+00 0.33053112E+02</pdfrwt>
<totfact> 0.95448503E+04</totfact>
</mgrwt>
</event>
<event>
 5      1 +6.6372287e+07 2.64822300e+01 7.54677100e-03 1.64058200e-01
        2 -1    0    0  503    0 -0.0000000000e+00 +0.0000000000e+00 +2.0433495267e+02 2.0433495267e+02 0.0000000000e+00 0.0000e+00 -1.0000e+00
       21 -1    0    0  504  502 +0.0000000000e+00 -0.0000000000e+00 -1.1621962120e+01 1.1621962120e+01 0.0000000000e+00 0.0000e+00 1.0000e+00
       21  1    1    2  503  502 -6.1453446806e-01 +2.8655724578e+01 +2.6926488695e+01 3.9326377880e+01 0.0000000000e+00 0.0000e+00 1.0000e+00
       21  1    1    2  504  501 +1.9294771642e+01 -8.5428375362e+00 +2.2933975834e+01 3.1164651987e+01 0.0000000000e+00 0.0000e+00 1.0000e+00
        2  1    1    2  501    0 -1.8680237174e+01 -2.0112887042e+01 +1.4285252602e+02 1.4546588493e+02 0.0000000000e+00 0.0000e+00 -1.0000e+00
<mgrwt>
<rscale>  3 0.26482232E+02</rscale>
<asrwt>0</asrwt>
<pdfrwt beam="2">  1       21 0.17879943E-02 0.26482232E+02</pdfrwt>
<pdfrwt beam="1">  1        2 0.31436144E-01 0.26482232E+02</pdfrwt>
<totfact> 0.22563568E+06</totfact>
</mgrwt>
</event>
<event>
 5      1 +6.6372287e+07 2.94114000e+01 7.54677100e-03 1.60468700e-01
        1 -1    0    0  503    0 -0.0000000000e+00 +0.0000000000e+00 +7.1456949129e+01 7.1456949129e+01 0.0000000000e+00 0.0000e+00 1.0000e+00
        2 -1    0    0  502    0 +0.0000000000e+00 -0.0000000000e+00 -3.2341513368e+01 3.2341513368e+01 0.0000000000e+00 0.0000e+00 1.0000e+00
       21  1    1    2  503  501 -1.2633702387e+01 +1.6779116547e+01 +3.5382422326e+01 4.1146871057e+01 0.0000000000e+00 0.0000e+00 1.0000e+00
        2  1    1    2  501    0 +3.4850371802e+01 -4.6645490224e-01 +1.2205098572e-01 3.4853706995e+01 0.0000000000e+00 0.0000e+00 1.0000e+00
        1  1    1    2  502    0 -2.2216669414e+01 -1.6312661644e+01 +3.6109624495e+00 2.7797884444e+01 0.0000000000e+00 0.0000e+00 1.0000e+00
<mgrwt>
<rscale>  3 0.29411403E+02</rscale>
<asrwt>0</asrwt>
<pdfrwt beam="2">  1        2 0.49756174E-02 0.29411403E+02</pdfrwt>
<pdfrwt beam="1">  1        1 0.10993377E-01 0.29411403E+02</pdfrwt>
<totfact> 0.84192782E+04</totfact>
</mgrwt>
</event>
<event>
 5      1 +6.6372287e+07 4.12907800e+01 7.54677100e-03 1.49892200e-01
       21 -1    0    0  504  501 +0.0000000000e+00 +0.0000000000e+00 +1.6408792035e+01 1.6408792035e+01 0.0000000000e+00 0.0000e+00 1.0000e+00
       21 -1    0    0  505  502 -0.0000000000e+00 -0.0000000000e+00 -2.8426721197e+02 2.8426721197e+02 0.0000000000e+00 0.0000e+00 1.0000e+00
       21  1    1    2  503  502 -9.0227533210e+00 +4.0120314210e+01 -1.6777925940e+02 1.7274527367e+02 0.0000000000e+00 0.0000e+00 1.0000e+00
       21  1    1    2  504  503 -2.8940986847e+01 -8.3287328478e+00 -3.5522385380e+01 4.6570252025e+01 0.0000000000e+00 0.0000e+00 -1.0000e+00
       21  1    1    2  505  501 +3.7963740168e+01 -3.1791581362e+01 -6.4556775153e+01 8.1360478312e+01 0.0000000000e+00 0.0000e+00 1.0000e+00
<mgrwt>
<rscale>  3 0.41290780E+02</rscale>
<asrwt>0</asrwt>
<pdfrwt beam="1">  1       21 0.25244298E-02 0.41290780E+02</pdfrwt>
<pdfrwt beam="2">  1       21 0.43733413E-01 0.41290780E+02</pdfrwt>
<totfact> 0.38789728E+06</totfact>
</mgrwt>
</event>
<event>
 5      1 +6.6372287e+07 3.01075800e+01 7.54677100e-03 1.59690300e-01
       -1 -1    0    0    0  501 -0.0000000000e+00 +0.0000000000e+00 +1.0837614737e+02 1.0837614737e+02 0.0000000000e+00 0.0000e+00 -1.0000e+00
        1 -1    0    0  503    0 +0.0000000000e+00 -0.0000000000e+00 -5.0187655412e+02 5.0187655412e+02 0.0000000000e+00 0.0000e+00 1.0000e+00
       21  1    1    2  503  501 -2.4244911852e+01 +2.4839805338e+00 -4.4874897660e+01 5.1066058689e+01 0.0000000000e+00 0.0000e+00 -1.0000e+00
        1  1    1    2  502    0 +9.4171551279e+00 +2.3796264682e+01 -4.5137403450e+02 4.5209895382e+02 0.0000000000e+00 0.0000e+00 1.0000e+00
       -1  1    1    2    0  502 +1.4827756724e+01 -2.6280245215e+01 +1.0274852541e+02 1.0708768898e+02 0.0000000000e+00 0.0000e+00 -1.0000e+00
<mgrwt>
<rscale>  3 0.30107583E+02</rscale>
<asrwt>0</asrwt>
<pdfrwt beam="2">  1        1 0.77211778E-01 0.30107583E+02</pdfrwt>
<pdfrwt beam="1">  1       -1 0.16673253E-01 0.30107583E+02</pdfrwt>
<totfact> 0.11578566E+03</totfact>
</mgrwt>
</event>
<event>
 5      1 +6.6372287e+07 2.75831300e+01 7.54677100e-03 1.62645100e-01
       21 -1    0    0  501  502 +0.0000000000e+00 +0.0000000000e+00 +1.5119270639e+01 1.5119270639e+01 0.0000000000e+00 0.0000e+00 1.0000e+00
       21 -1    0    0  504  503 -0.0000000000e+00 -0.0000000000e+00 -4.4797372094e+02 4.4797372094e+02 0.0000000000e+00 0.0000e+00 1.0000e+00
       21  1    1    2  504  502 +2.3933439080e+01 -1.5349180970e+01 -7.6519214979e+00 2.9444163518e+01 0.0000000000e+00 0.0000e+00 1.0000e+00
        1  1    1    2  501    0 -9.1468995899e+00 +2.8848403826e+01 -5.3965016364e+01 6.1871796213e+01 0.0000000000e+00 0.0000e+00 -1.0000e+00
       -1  1    1    2    0  503 -1.4786539490e+01 -1.3499222856e+01 -3.7123751244e+02 3.7177703185e+02 0.0000000000e+00 0.0000e+00 1.0000e+00
<mgrwt>
<rscale>  3 0.27583132E+02</rscale>
<asrwt>0</asrwt>
<pdfrwt beam="1">  1       21 0.23260418E-02 0.27583132E+02</pdfrwt>
<pdfrwt beam="2">  1       21 0.68919030E-01 0.27583132E+02</pdfrwt>
<totfact> 0.17059051E+06</totfact>
</mgrwt>
</event>
<event>
 5      1 +6.6372287e+07 5.38232700e+01 7.54677100e-03 1.42574700e-01
       21 -1    0    0  502  501 +0.0000000000e+00 +0.0000000000e+00 +8.6931327192e+02 8.6931327192e+02 0.0000000000e+00 0.0000e+00 -1.0000e+00
       21 -1    0    0  505  502 -0.0000000000e+00 -0.0000000000e+00 -1.3878826862e+01 1.3878826862e+01 0.0000000000e+00 0.0000e+00 1.0000e+00
       21  1    1    2  503  501 -1.1384767832e+01 -5.5414417532e+01 +5.7810173998e+02 5.8086314427e+02 0.0000000000e+00 0.0000e+00 -1.0000e+00
       21  1    1    2  504  503 +4.8586431572e+01 +3.3136350907e+01 +2.3303180192e+02 2.4033826119e+02 0.0000000000e+00 0.0000e+00 -1.0000e+00
       21  1    1    2  505  504 -3.7201663740e+01 +2.2278066625e+01 +4.4300903156e+01 6.1990693318e+01 0.0000000000e+00 0.0000e+00 1.0000e+00
<mgrwt>
<rscale>  3 0.53823273E+02</rscale>
<asrwt>0</asrwt>
<pdfrwt beam="1">  1       21 0.13374046E+00 0.53823273E+02</pdfrwt>
<pdfrwt beam="2">  1       21 0.21352048E-02 0.53823273E+02</pdfrwt>
<totfact> 0.45957317E+05</totfact>
</mgrwt>
</event>
<event>
 5      1 +6.6372287e+07 4.09907500e+01 7.54677100e-03 1.50104500e-01
       21 -1    0    0  504  501 +0.0000000000e+00 +0.0000000000e+00 +7.0992522075e+01 7.0992522075e+01 0.0000000000e+00 0.0000e+00 1.0000e+00
       21 -1    0    0  505  502 -0.0000000000e+00 -0.0000000000e+00 -1.3949703176e+02 1.3949703176e+02 0.0000000000e+00 0.0000e+00 1.0000e+00
       21  1    1    2  503  501 +1.1659851347e+01 -5.1077643128e+01 +4.3516059870e+01 6.8106719401e+01 0.0000000000e+00 0.0000e+00 1.0000e+00
       21  1    1    2  504  502 +3.0482205563e+00 +2.8158917183e+01 -1.2900096167e+00 2.8352784524e+01 0.0000000000e+00 0.0000e+00 1.0000e+00
       21  1    1    2  505  503 -1.4708071904e+01 +2.2918725946e+01 -1.1073055994e+02 1.1403004991e+02 0.0000000000e+00 0.0000e+00 1.0000e+00
<mgrwt>
<rscale>  3 0.40990751E+02</rscale>
<asrwt>0</asrwt>
<pdfrwt beam="1">  1       21 0.10921927E-01 0.40990751E+02</pdfrwt>
<pdfrwt beam="2">  1       21 0.21461082E-01 0.40990751E+02</pdfrwt>
<totfact> 0.13404950E+06</totfact>
</mgrwt>
</event>
<event>
 5      1 +6.6372287e+07 3.36149800e+01 7.54677100e-03 1.56125500e-01
       21 -1    0    0  502  503 +0.0000000000e+00 +0.0000000000e+00 +7.9720643936e+01 7.9720643936e+01 0.0000000000e+00 0.0000e+00 1.0000e+00
        1 -1    0    0  503    0 -0.0000000000e+00 -0.0000000000e+00 -1.1015809106e+02 1.1015809106e+02 0.0000000000e+00 0.0000e+00 1.0000e+00
        1  1    1    2  501    0 +2.0832938167e+01 +2.8798086026e+01 -8.7908167480e+01 9.4821869741e+01 0.0000000000e+00 0.0000e+00 1.0000e+00
        4  1    1    2  502    0 -3.2596791056e+01 +4.0076403627e+00 +4.9338106023e+01 5.9269390704e+01 0.0000000000e+00 0.0000e+00 1.0000e+00
       -4  1    1    2    0  501 +1.1763852889e+01 -3.2805726389e+01 +8.1326143350e+00 3.5787474550e+01 0.0000000000e+00 0.0000e+00 -1.0000e+00
<mgrwt>
<rscale>  3 0.33614975E+02</rscale>
<asrwt>0</asrwt>
<pdfrwt beam="1">  1       21 0.12264714E-01 0.33614975E+02</pdfrwt>
<pdfrwt beam="2">  1        1 0.16947399E-01 0.33614975E+02</pdfrwt>
<totfact> 0.16891392E+05</totfact>
</mgrwt>
</event>
<event>
 5      1 +6.6372287e+07 5.25551000e+01 7.54677100e-03 1.43202800e-01
       -1 -1    0    0    0  501 -0.0000000000e+00 +0.0000000000e+00 +4.5821819927e+02 4.5821819927e+02 0.0000000000e+00 0.0000e+00 -1.0000e+00
       21 -1    0    0  501  502 +0.0000000000e+00 -0.0000000000e+00 -1.2383942127e+01 1.2383942127e+01 0.0000000000e+00 0.0000e+00 1.0000e+00
       21  1    1    2  503  502 -5.0926951541e+01 -5.0815690566e+00 +5.0883321493e+01 7.2169863125e+01 0.0000000000e+00 0.0000e+00 1.0000e+00
       21  1    1    2  504  503 +2.4440122995e+01 +3.5331599133e+00 +1.4625618020e+02 1.4832623867e+02 0.0000000000e+00 0.0000e+00 -1.0000e+00
       -1  1    1    2    0  504 +2.6486828546e+01 +1.5484091433e+00 +2.4869475544e+02 2.5010603960e+02 0.0000000000e+00 0.0000e+00 -1.0000e+00
<mgrwt>
<rscale>  3 0.52555102E+02</rscale>
<asrwt>0</asrwt>
<pdfrwt beam="2">  1       21 0.19052222E-02 0.52555102E+02</pdfrwt>
<pdfrwt beam="1">  1       -1 0.70495095E-01 0.52555102E+02</pdfrwt>
<totfact> 0.23587364E+05</totfact>
</mgrwt>
</event>
<event>
 5      1 +6.6372287e+07 4.46278200e+01 7.54677100e-03 1.47667900e-01
       21 -1    0    0  503  501 +0.0000000000e+00 +0.0000000000e+00 +5.5593250322e+02 5.5593250322e+02 0.0000000000e+00 0.0000e+00 -1.0000e+00
       21 -1    0    0  505  502 -0.0000000000e+00 -0.0000000000e+00 -1.8836808285e+02 1.8836808285e+02 0.0000000000e+00 0.0000e+00 1.0000e+00
       21  1    1    2  503  504 +4.0713374762e+01 +1.7975906273e+01 +5.4492854609e+02 5.4674293085e+02 0.0000000000e+00 0.0000e+00 -1.0000e+00
       21  1    1    2  504  502 -4.8243013951e+01 -3.8385710795e+01 -1.0265016479e+02 1.1974100183e+02 0.0000000000e+00 0.0000e+00 1.0000e+00
       21  1    1    2  505  501 +7.5296391891e+00 +2.0409804522e+01 -7.4713960932e+01 7.7816653392e+01 0.0000000000e+00 0.0000e+00 1.0000e+00
<mgrwt>
<rscale>  3 0.44627825E+02</rscale>
<asrwt>0</asrwt>
<pdfrwt beam="1">  1       21 0.85528077E-01 0.44627825E+02</pdfrwt>
<pdfrwt beam="2">  1       21 0.28979705E-01 0.44627825E+02</pdfrwt>
<totfact> 0.15745256E+04</totfact>
</mgrwt>
</event>
<event>
 5      1 +6.6372287e+07 3.37382900e+01 7.54677100e-03 1.56009900e-01
        2 -1    0    0  503    0 -0.0000000000e+00 +0.0000000000e+00 +1.5881756914e+03 1.5881756914e+03 0.0000000000e+00 0.0000e+00 -1.0000e+00
       21 -1    0    0  504  502 +0.0000000000e+00 -0.0000000000e+00 -1.3626711614e+01 1.3626711614e+01 0.0000000000e+00 0.0000e+00 1.0000e+00
       21  1    1    2  503  502 -2.5839259073e+01 -9.7303516134e+00 +1.6154599506e+02 1.6388854618e+02 0.0000000000e+00 0.0000e+00 1.0000e+00
       21  1    1    2  504  501 -1.7069497306e+01 +2.9008026152e+01 +1.1420766537e+01 3.5542470761e+01 0.0000000000e+00 0.0000e+00 1.0000e+00
        2  1    1    2  501    0 +4.2908756379e+01 -1.9277674538e+01 +1.4015822182e+03 1.4023713861e+03 0.0000000000e+00 0.0000e+00 -1.0000e+00
<mgrwt>
<rscale>  3 0.33738290E+02</rscale>
<asrwt>0</asrwt>
<pdfrwt beam="2">  1       21 0.20964184E-02 0.33738290E+02</pdfrwt>
<pdfrwt beam="1">  1        2 0.24433458E+00 0.33738290E+02</pdfrwt>
<totfact> 0.17276941E+05</totfact>
</mgrwt>
</event>
<event>
 5      1 +6.6372287e+07 3.21182600e+01 7.54677100e-03 1.57578900e-01
       21 -1    0    0  505  501 +0.0000000000e+00 +0.0000000000e+00 +4.7751679366e+02 4.7751679366e+02 0.0000000000e+00 0.0000e+00 1.0000e+00
       21 -1    0    0  503  502 -0.0000000000e+00 -0.0000000000e+00 -2.2525410541e+01 2.2525410541e+01 0.0000000000e+00 0.0000e+00 1.0000e+00
       21  1    1    2  503  501 -1.0544572028e+01 +2.8771952473e+01 +1.5170782840e+02 1.5477169782e+02 0.0000000000e+00 0.0000e+00 1.0000e+00
       21  1    1    2  504  502 +2.6106310540e+01 +5.1888225486e+00 -1.0981232855e+01 2.8793242340e+01 0.0000000000e+00 0.0000e+00 1.0000e+00
       21  1    1    2  505  504 -1.5561738512e+01 -3.3960775022e+01 +3.1426478757e+02 3.1647726404e+02 0.0000000000e+00 0.0000e+00 1.0000e+00
<mgrwt>
<rscale>  3 0.32118265E+02</rscale>
<asrwt>0</asrwt>
<pdfrwt beam="1">  1       21 0.73464115E-01 0.32118265E+02</pdfrwt>
<pdfrwt beam="2">  1       21 0.34654481E-02 0.32118265E+02</pdfrwt>
<totfact> 0.80826114E+05</totfact>
</mgrwt>
</event>
<event>
 5      1 +6.6372287e+07 4.09504400e+01 7.54677100e-03 1.50133100e-01
       21 -1    0    0  505  501 +0.0000000000e+00 +0.0000000000e+00 +1.7536299147e+02 1.7536299147e+02 0.0000000000e+00 0.0000e+00 -1.0000e+00
       21 -1    0    0  503  502 -0.0000000000e+00 -0.0000000000e+00 -3.6964015600e+01 3.6964015600e+01 0.0000000000e+00 0.0000e+00 1.0000e+00
       21  1    1    2  503  501 +4.0714726769e+00 +5.7850454719e+01 +1.0890596398e+00 5.8003776186e+01 0.0000000000e+00 0.0000e+00 1.0000e+00
       21  1    1    2  504  502 +4.7732900088e+00 -1.9654732976e+01 +1.3161726099e+01 2.4131387440e+01 0.0000000000e+00 0.0000e+00 1.0000e+00
       21  1    1    2  505  504 -8.8447626857e+00 -3.8195721743e+01 +1.2414819013e+02 1.3019184344e+02 0.0000000000e+00 0.0000e+00 -1.0000e+00
<mgrwt>
<rscale>  3 0.40950439E+02</rscale>
<asrwt>0</asrwt>
<pdfrwt beam="1">  1       21 0.26978921E-01 0.40950439E+02</pdfrwt>
<pdfrwt beam="2">  1       21 0.56867717E-02 0.40950439E+02</pdfrwt>
<totfact> 0.26246574E+06</totfact>
</mgrwt>
</event>
<event>
 5      1 +6.6372287e+07 2.73967700e+01 7.54677100e-03 1.62878500e-01
       21 -1    0    0  504  501 +0.0000000000e+00 +0.0000000000e+00 +9.4621731867e+02 9.4621731867e+02 0.0000000000e+00 0.0000e+00 1.0000e+00
       21 -1    0    0  503  502 -0.0000000000e+00 -0.0000000000e+00 -5.2344682715e+02 5.2344682715e+02 0.0000000000e+00 0.0000e+00 -1.0000e+00
       21  1    1    2  503  501 +3.5097651064e+01 +5.1743549524e+00 +5.7624905467e+01 6.7670146960e+01 0.0000000000e+00 0.0000e+00 -1.0000e+00
       21  1    1    2  504  505 -1.6769759782e+01 -2.1740470328e+01 +8.8306196865e+02 8.8348871717e+02 0.0000000000e+00 0.0000e+00 1.0000e+00
       21  1    1    2  505  502 -1.8327891283e+01 +1.6566115375e+01 -5.1791638260e+02 5.1850528169e+02 0.0000000000e+00 0.0000e+00 -1.0000e+00
<mgrwt>
<rscale>  3 0.27396771E+02</rscale>
<asrwt>0</asrwt>
<pdfrwt beam="1">  1       21 0.14557190E+00 0.27396771E+02</pdfrwt>
<pdfrwt beam="2">  1       21 0.80530281E-01 0.27396771E+02</pdfrwt>
<totfact> 0.67303146E+02</totfact>
</mgrwt>
</event>
<event>
 5      1 +6.6372287e+07 8.17190300e+01 7.54677100e-03 1.32424300e-01
        1 -1    0    0  502    0 +0.0000000000e+00 +0.0000000000e+00 +3.6186655864e+02 3.6186655864e+02 0.0000000000e+00 0.0000e+00 1.0000e+00
        1 -1    0    0  503    0 -0.0000000000e+00 -0.0000000000e+00 -8.5536214190e+01 8.5536214190e+01 0.0000000000e+00 0.0000e+00 1.0000e+00
       21  1    1    2  503  501 +6.9748665717e+01 -2.1225395602e+01 +1.1519982450e+02 1.3633192345e+02 0.0000000000e+00 0.0000e+00 1.0000e+00
        1  1    1    2  501    0 +1.4237054539e+01 +2.7062837406e+01 +2.1101094416e+02 2.1321517170e+02 0.0000000000e+00 0.0000e+00 1.0000e+00
        1  1    1    2  502    0 -8.3985720256e+01 -5.8374418043e+00 -4.9880424207e+01 9.7855677673e+01 0.0000000000e+00 0.0000e+00 1.0000e+00
<mgrwt>
<rscale>  3 0.81719032E+02</rscale>
<asrwt>0</asrwt>
<pdfrwt beam="1">  1        1 0.55671777E-01 0.81719032E+02</pdfrwt>
<pdfrwt beam="2">  1        1 0.13159418E-01 0.81719032E+02</pdfrwt>
<totfact> 0.34676915E+03</totfact>
</mgrwt>
</event>
<event>
 5      1 +6.6372287e+07 3.21808800e+01 7.54677100e-03 1.57516200e-01
       -1 -1    0    0    0  501 -0.0000000000e+00 +0.0000000000e+00 +1.6785736656e+03 1.6785736656e+03 0.0000000000e+00 0.0000e+00 -1.0000e+00
       21 -1    0    0  503  502 +0.0000000000e+00 -0.0000000000e+00 -2.6055706089e+00 2.6055706089e+00 0.0000000000e+00 0.0000e+00 -1.0000e+00
       21  1    1    2  503  501 -1.3779710329e+01 -3.5600343603e+01 +9.7923046116e+02 9.7997426545e+02 0.0000000000e+00 0.0000e+00 -1.0000e+00
       21  1    1    2  504  502 +2.3134215327e+01 +6.9265799703e+00 +7.6205484473e+01 7.9940260774e+01 0.0000000000e+00 0.0000e+00 -1.0000e+00
       -1  1    1    2    0  504 -9.3545049987e+00 +2.8673763633e+01 +6.2053214934e+02 6.2126470997e+02 0.0000000000e+00 0.0000e+00 -1.0000e+00
<mgrwt>
<rscale>  3 0.32180882E+02</rscale>
<asrwt>0</asrwt>
<pdfrwt beam="2">  1       21 0.40085836E-03 0.32180882E+02</pdfrwt>
<pdfrwt beam="1">  1       -1 0.25824124E+00 0.32180882E+02</pdfrwt>
<totfact> 0.94656396E+04</totfact>
</mgrwt>
</event>
<event>
 5      1 +6.6372287e+07 2.72410900e+01 7.54677100e-03 1.63075300e-01
       21 -1    0    0  503  501 +0.0000000000e+00 +0.0000000000e+00 +4.0924620761e+01 4.0924620761e+01 0.0000000000e+00 0.0000e+00 -1.0000e+00
       21 -1    0    0  504  502 -0.0000000000e+00 -0.0000000000e+00 -1.0688357873e+02 1.0688357873e+02 0.0000000000e+00 0.0000e+00 1.0000e+00
       21  1    1    2  503  502 +1.4260677542e+01 +2.3044763190e+01 +2.6464656953e+01 3.7878834487e+01 0.0000000000e+00 0.0000e+00 -1.0000e+00
       21  1    1    2  504  505 -3.4418262802e+01 -1.1596463544e+01 -5.7672141314e+01 6.8155488882e+01 0.0000000000e+00 0.0000e+00 -1.0000e+00
       21  1    1    2  505  501 +2.0157585259e+01 -1.1448299646e+01 -3.4751473609e+01 4.1773876122e+01 0.0000000000e+00 0.0000e+00 1.0000e+00
<mgrwt>
<rscale>  3 0.27241089E+02</rscale>
<asrwt>0</asrwt>
<pdfrwt beam="1">  1       21 0.62960956E-02 0.27241089E+02</pdfrwt>
<pdfrwt beam="2">  1       21 0.16443627E-01 0.27241089E+02</pdfrwt>
<totfact> 0.51232088E+06</totfact>
</mgrwt>
</event>
<event>
 5      1 +6.6372287e+07 8.96432400e+01 7.54677100e-03 1.30371800e-01
       21 -1    0    0  503  501 +0.0000000000e+00 +0.0000000000e+00 +1.9106265508e+03 1.9106265508e+03 0.0000000000e+00 0.0000e+00 -1.0000e+00
       21 -1    0    0  501  502 -0.0000000000e+00 -0.0000000000e+00 -8.3144018617e+00 8.3144018617e+00 0.0000000000e+00 0.0000e+00 -1.0000e+00
       21  1    1    2  503  504 +2.0112949282e+01 -5.3085600688e+01 +9.4969449400e+02 9.5138963820e+02 0.0000000000e+00 0.0000e+00 -1.0000e+00
       21  1    1    2  504  505 -4.7004645833e+00 -3.1846193563e+01 +6.9718679537e+02 6.9792958244e+02 0.0000000000e+00 0.0000e+00 -1.0000e+00
       21  1    1    2  505  502 -1.5412484699e+01 +8.4931794252e+01 +2.5543085956e+02 2.6962173201e+02 0.0000000000e+00 0.0000e+00 -1.0000e+00
<mgrwt>
<rscale>  3 0.89643239E+02</rscale>
<asrwt>0</asrwt>
<pdfrwt beam="1">  1       21 0.29394220E+00 0.89643239E+02</pdfrwt>
<pdfrwt beam="2">  1       21 0.12791403E-02 0.89643239E+02</pdfrwt>
<totfact> 0.10444343E+05</totfact>
</mgrwt>
</event>
<event>
 5      1 +6.6372287e+07 3.51788400e+01 7.54677100e-03 1.54701800e-01
       21 -1    0    0  504  502 +0.0000000000e+00 +0.0000000000e+00 +2.4477402762e+01 2.4477402762e+01 0.0000000000e+00 0.0000e+00 1.0000e+00
       -4 -1    0    0    0  501 -0.0000000000e+00 -0.0000000000e+00 -1.3548028651e+02 1.3548028651e+02 0.0000000000e+00 0.0000e+00 1.0000e+00
       21  1    1    2  503  501 +5.2535145793e+00 -1.9356004202e+01 -7.2383362573e+01 7.5110621695e+01 0.0000000000e+00 0.0000e+00 1.0000e+00
       21  1    1    2  504  503 -1.7320229400e+01 -2.4467895105e+01 -1.3062058210e+01 3.2699932753e+01 0.0000000000e+00 0.0000e+00 1.0000e+00
       -4  1    1    2    0  502 +1.2066714821e+01 +4.3823899307e+01 -2.5557462961e+01 5.2147134821e+01 0.0000000000e+00 0.0000e+00 1.0000e+00
<mgrwt>
<rscale>  3 0.35178836E+02</rscale>
<asrwt>0</asrwt>
<pdfrwt beam="1">  1       21 0.37657543E-02 0.35178836E+02</pdfrwt>
<pdfrwt beam="2">  1       -4 0.20843121E-01 0.35178836E+02</pdfrwt>
<totfact> 0.26617371E+05</totfact>
</mgrwt>
</event>
<event>
 5      1 +6.6372287e+07 5.53124500e+01 7.54677100e-03 1.41862700e-01
       21 -1    0    0  504  501 +0.0000000000e+00 +0.0000000000e+00 +2.4660412160e+02 2.4660412160e+02 0.0000000000e+00 0.0000e+00 1.0000e+00
       21 -1    0    0  503  502 -0.0000000000e+00 -0.0000000000e+00 -7.8448765078e+02 7.8448765078e+02 0.0000000000e+00 0.0000e+00 -1.0000e+00
       21  1    1    2  503  505 -4.2504266063e+01 -2.5589506438e+01 -2.1846702105e+02 2.2402962920e+02 0.0000000000e+00 0.0000e+00 -1.0000e+00
       21  1    1    2  504  502 +6.8994906150e+01 -2.2979517961e+01 -5.5770982325e+02 5.6243097556e+02 0.0000000000e+00 0.0000e+00 -1.0000e+00
       21  1    1    2  505  501 -2.6490640086e+01 +4.8569024399e+01 +2.3829331512e+02 2.4463116762e+02 0.0000000000e+00 0.0000e+00 1.0000e+00
<mgrwt>
<rscale>  3 0.55312446E+02</rscale>
<asrwt>0</asrwt>
<pdfrwt beam="1">  1       21 0.37939096E-01 0.55312446E+02</pdfrwt>
<pdfrwt beam="2">  1       21 0.12069041E+00 0.55312446E+02</pdfrwt>
<totfact> 0.42114463E+03</totfact>
</mgrwt>
</event>
<event>
 5      1 +6.6372287e+07 3.03757500e+01 7.54677100e-03 1.59397200e-01
        2 -1    0    0  503    0 -0.0000000000e+00 +0.0000000000e+00 +1.2971462251e+03 1.2971462251e+03 0.0000000000e+00 0.0000e+00 1.0000e+00
       21 -1    0    0  501  502 +0.0000000000e+00 -0.0000000000e+00 -5.6448232432e+00 5.6448232432e+00 0.0000000000e+00 0.0000e+00 -1.0000e+00
       21  1    1    2  503  504 -2.3055791365e+00 +2.0675048888e+01 +2.1686626098e+02 2.1786176464e+02 0.0000000000e+00 0.0000e+00 1.0000e+00
       21  1    1    2  504  502 -2.9371916466e+01 -8.2619650311e+00 +4.2957332697e+01 5.2690625120e+01 0.0000000000e+00 0.0000e+00 -1.0000e+00
        2  1    1    2  501    0 +3.1677495603e+01 -1.2413083857e+01 +1.0316778082e+03 1.0322386586e+03 0.0000000000e+00 0.0000e+00 1.0000e+00
<mgrwt>
<rscale>  3 0.30375748E+02</rscale>
<asrwt>0</asrwt>
<pdfrwt beam="2">  1       21 0.86843538E-03 0.30375748E+02</pdfrwt>
<pdfrwt beam="1">  1        2 0.19956072E+00 0.30375748E+02</pdfrwt>
<totfact> 0.91540288E+05</totfact>
</mgrwt>
</event>
<event>
 5      1 +6.6372287e+07 4.60134200e+01 7.54677100e-03 1.46811200e-01
       -1 -1    0    0    0  501 -0.0000000000e+00 +0.0000000000e+00 +1.7829784629e+01 1.7829784629e+01 0.0000000000e+00 0.0000e+00 -1.0000e+00
       21 -1    0    0  503  502 +0.0000000000e+00 -0.0000000000e+00 -2.8514522110e+02 2.8514522110e+02 0.0000000000e+00 0.0000e+00 1.0000e+00
       21  1    1    2  503  501 -3.0860485485e+01 +3.4588417908e+01 -6.7479109992e+01 8.1866711813e+01 0.0000000000e+00 0.0000e+00 -1.0000e+00
       21  1    1    2  504  502 +2.6117598747e+01 +1.5550519447e+01 -1.3824680405e+02 1.4154902490e+02 0.0000000000e+00 0.0000e+00 1.0000e+00
       -1  1    1    2    0  504 +4.7428867379e+00 -5.0138937355e+01 -6.1589522426e+01 7.9559269015e+01 0.0000000000e+00 0.0000e+00 -1.0000e+00
<mgrwt>
<rscale>  3 0.46013420E+02</rscale>
<asrwt>0</asrwt>
<pdfrwt beam="2">  1       21 0.43868495E-01 0.46013420E+02</pdfrwt>
<pdfrwt beam="1">  1       -1 0.27430438E-02 0.46013420E+02</pdfrwt>
<totfact> 0.16895399E+05</totfact>
</mgrwt>
</event>
</LesHouchesEvents>
